# vtk DataFile Version 4.1
vtk output
ASCII
DATASET POLYDATA
FIELD FieldData 3
PORINGUMAS 1 1 double
0.69529319781 
UNIQUE_RADIUS 1 7 double
5e-05 7e-05 9e-05 0.00011 0.00013 0.00015 0.00017 
PARTICLE_TYPE 1 7 double
3 4 8 14 21 20 17 
POINTS 27391 float
0 0 0 0.00034 0 0 0.00017 0.000294449 0 
0.00017 9.81495e-05 9.93311e-05 8.12404e-05 0.000149395 0.000271074 0.00032943 0.000190196 0.000205216 
0.000489026 0.000282339 2.18077e-05 0.000225127 0.000411758 0.000292574 0.000288488 0.000194941 0.000421321 
0.000474469 0.000340241 0.00027486 0.000524049 8.85274e-05 0.000191544 0.000271337 4.31067e-06 0.000250733 
0.000591448 6.5975e-05 4.59806e-06 0.000417626 0.000396807 0.000522184 0.000435526 0.000555341 0.000134093 
0.000715732 0.000262298 0.000217264 0.000180355 0.000561174 8.45589e-05 0.000227546 0.000731621 0.000301633 
0.000722501 0.000500417 3.5978e-06 0.000656676 0.000540011 0.00036487 6.59092e-05 0.000306511 0.000549425 
0.00055122 0.000110873 0.000469325 5.99917e-05 0.000445033 0.000151071 7.5169e-05 0.000560334 0.000230625 
0.00028744 0.000705194 7.07339e-05 9.48358e-05 0.000797515 1.80028e-05 0.000446726 0.000853502 0.000102874 
0.000835965 0.000291615 0.000512364 0.000963637 0.000463314 0.000240403 3.83691e-06 0.000568593 0.000417289 
0.000204546 0.000588152 0.000611539 0.000319083 0.000163627 0.000683169 0.000602669 0.000287218 0.000731347 
0.000440422 0.000532997 0.000788516 0.000817674 3.88797e-05 0.00035177 0.000912362 0.000268588 1.80225e-05 
0.000180144 9.67156e-05 0.000526265 0.000324828 3.83905e-05 0.000502385 0.000259479 0.000375182 0.000673583 
0.000522799 8.37892e-05 0.000706092 0.00040199 0.000318135 0.000816036 6.69791e-06 0.000496553 9.27749e-06 
0.000205976 0.00104903 0.000181679 0.000746248 2.1806e-05 0.000123282 0.000789508 2.65746e-05 0.000589794 
0.000969558 0.000183428 0.000234993 1.71886e-05 0.000839187 0.000546131 1.47481e-05 0.000353396 0.000319677 
0.000383013 0.000554689 0.000347733 0.00107451 8.69143e-05 0.000452411 5.60435e-05 1.95667e-05 0.000690725 
0.000158922 0.000321973 0.000813072 0.000167057 0.000563813 0.000908191 0.000335344 0.000855807 0.000576146 
0.000755409 0.000797388 0.00016585 0.000659791 0.000438759 0.000582444 0.000782376 0.000162573 0.000707496 
0.000877586 0.000521354 0.000456797 0.000943885 0.000110977 0.000627791 0.00104417 0.000296584 0.000393096 
0.00018986 0.00010102 0.000946574 0.000686486 8.67747e-06 0.000864726 0.000899957 0.000320213 0.000845061 
0.000444221 0.000982445 0.000351404 0.000503015 0.000345171 0.000986515 0.000716624 0.000542686 0.000743593 
0.00097752 2.02703e-05 5.91637e-05 0.0011551 0.000271924 0.000111124 0.00016833 0.000878134 0.000848189 
0.000186903 0.00113169 0.000510925 0.000383994 0.000722392 0.000986873 0.00100297 1.84198e-05 0.000818427 
4.98043e-05 0.000870957 0.000220434 6.19107e-05 0.00098892 0.000363977 0.000351123 0.00115895 0.000338042 
0.000445182 0.00106346 0.000168552 0.00048348 0.000929216 0.000826479 0.000565292 0.000661409 0.000600054 
0.00081996 0.000657278 0.000559772 0.000628919 0.000548553 0.000966917 0.00036513 0.000523449 0.000995011 
0.000351257 0.000734113 0.000789919 0.000555095 0.000692373 0.00088776 0.000776364 0.000781017 0.000915726 
0.00041797 0.00126129 0.000179743 0.000632662 0.00106281 9.89038e-05 0.00106322 0.000204361 0.000679159 
0.0011615 5.32067e-05 0.000209723 0.000300938 0.00116656 0.000807876 0.00120395 0.00035247 0.000331865 
6.62582e-06 0.00106311 0.000713897 0.000635719 0.00082995 0.000439005 0.000975775 0.000660806 1.49048e-05 
0.000957516 0.000730265 0.000377148 0.00017 6.56663e-06 0.000139488 0.000956626 0.000507059 0.000644369 
0.00116185 0.00022142 0.00085231 0.000778533 0.000561066 0.00091161 0.000559754 0.000793561 0.000952097 
0.000591377 0.000763247 0.00079798 0.00079368 0.000702082 0.000711106 0.000448557 0.000112005 0.000970144 
8.0815e-05 0.0011192 0.000890957 9.00017e-05 0.00124462 0.000724133 0.000730842 0.000970357 0.0006618 
0.00101413 0.000753672 0.000703316 0.000477604 0.00120181 0.000486923 0.00117479 0.000471166 0.000781177 
0.000575314 0.00118382 0.00075477 0.00024218 0.00141465 0.000649767 0.000105253 0.00135336 0.000937538 
0.000392797 0.00143383 0.000908507 0.00117687 0.000699409 0.00020588 0.00116077 0.000584801 0.000503362 
0.000864077 0.000993674 0.000394023 0.00102527 0.000904603 9.04918e-05 0.00113361 0.00092145 0.000370885 
0.00136636 0.000528876 0.000321691 0.000806374 0.00111915 0.000934849 0.0014079 0.000181449 0.000244941 
0.00126675 5.66308e-05 0.000680726 0.00138059 0.000332703 0.000548216 0.000968345 0.000570961 0.000852044 
0.00111424 0.000362131 0.000986226 0.00108088 0.000359937 0.000590365 0.00124475 0.000687207 0.000703512 
0.00133974 0.000298163 0.000802654 0.00126674 9.43704e-05 4.47106e-05 0.00132618 0.000406417 0.000143393 
0.00153271 0.000386707 0.000344396 0.000941091 0.000484346 2.2574e-05 0.000937175 0.000675838 0.000190074 
0.00109856 0.000554473 9.24681e-05 0.00112103 0.000766533 2.59439e-05 0.000383974 0.00144615 0.000387275 
0.000673213 0.0012587 0.000294827 0.00106447 0.000724263 0.000977181 0.00100412 0.00102489 0.000634469 
0.00124158 0.000883567 0.000604352 0.00100589 2.76172e-05 0.000236763 0.0011248 0.000196141 0.000271559 
0.00115708 8.1031e-06 5.62755e-05 0.0013044 1.15077e-05 0.000151084 0.00124314 7.5839e-05 0.00034545 
0.000367839 0.000659414 0.000482476 0.000441137 0.000787452 0.00039577 0.000382744 0.00106335 0.000631653 
0.000550403 0.00083972 0.000619631 0.000522295 0.000964089 0.000534619 0.000181606 0.00160626 0.000844742 
0.00084386 0.00115939 0.000566444 0.00106389 0.00111695 0.000443806 0.000977193 0.000948221 0.000838912 
0.00145403 0.000486005 0.000795409 0.00131185 0.000676827 0.00091277 0.00117918 0.000469027 0.000135007 
0.00134126 0.000285806 3.9347e-05 0.00133306 0.000565519 0.000127916 0.00147748 0.000405743 0.000195442 
0.000877673 0.00113237 0.000151168 0.000691641 0.00128836 0.000552471 0.000910481 0.00124941 0.000400739 
0.000941603 0.0012397 0.000721353 0.000909719 0.000599314 0.000998192 0.00106964 0.000524595 0.00096689 
0.000970445 0.000900213 0.00099139 0.00111786 0.000873842 0.000855629 0.00167775 0.000199105 0.000451022 
0.00147982 0.000398216 1.56144e-05 0.000472869 0.00134846 0.000650847 0.000631216 0.0010498 0.000445722 
2.34796e-05 0.000486671 0.000732023 2.76631e-05 0.000675747 0.000748065 0.00110779 0.00112485 0.000850938 
0.00115198 0.00123683 0.000605882 0.000605202 0.00127853 6.55204e-05 0.000542839 0.00144028 0.000207476 
0.000617182 0.00143861 0.000443463 0.000887636 0.0013398 0.000223797 0.00079663 0.00141047 0.000433868 
0.00151126 0.000166758 0.000761257 0.00143299 0.000628059 0.000552609 0.00164925 0.000437713 0.000630617 
0.000433435 0.00166743 0.000693612 0.00124573 2.28809e-05 0.000957889 0.000152937 0.00132575 0.000284681 
0.00013468 0.00168602 0.000580476 0.0016633 0.000324227 0.000178743 0.000477241 0.00123117 0.000922519 
0.000360673 0.00165107 0.00092173 0.000562806 0.00138197 0.000778864 0.000809468 0.00134515 1.82221e-05 
0.0010894 0.00125376 0.000240831 0.00163371 0.000589171 0.000264352 0.000622221 0.00132734 0.000968698 
0.000537935 0.00164504 0.000952413 0.0010045 0.00137042 0.000937118 0.00136099 0.00110129 0.00073373 
0.00122948 0.00132835 0.000813771 0.00126171 0.000956475 0.000925491 0.000718069 0.0013465 0.00079421 
4.04204e-05 0.00136957 0.000492093 0.00176247 0.000229342 0.000737218 0.00181767 0.000463945 0.000434282 
0.00168776 0.000672646 0.000526098 0.000892918 0.000899792 0.000568248 0.00100907 0.000905492 0.00049986 
0.00111797 0.000922628 0.00072923 0.000979733 0.00119242 0.00057333 0.0011464 0.00101397 0.000524757 
0.00116775 0.00107742 0.000687981 0.000605054 0.0014893 0.000892067 0.000422669 0.00177579 0.000907489 
0.00158651 0.000471607 0.00010959 0.00167107 0.000407146 0.000338318 0.00177005 0.000442869 0.000261979 
0.00146821 0.000523333 0.000173382 0.00152201 0.00050988 0.000410077 0.00148401 0.000651244 0.000381557 
0.00178889 0.000633867 0.000382335 0.0016458 0.000515133 0.00044975 0.000713822 0.00162301 0.000790615 
0.00142187 0.000788308 0.000730926 0.00132612 0.000781606 0.000402268 0.00152578 0.000877704 0.00097508 
0.00022295 0.00183255 0.00077628 0.000345977 0.00169985 0.000429604 0.000558454 0.00162978 0.000445918 
0.000583909 0.00183788 0.000857029 0.00149998 1.97082e-05 0.000571919 0.00139973 0.000206552 0.000970011 
0.00161576 0.000337974 0.000893029 0.000146728 0.00160559 0.000291709 0.000310471 0.00192727 0.000550519 
0.000463516 0.00166667 0.000200075 0.000757458 0.00146133 0.000197655 0.00100474 0.00140202 0.000102085 
0.000956912 0.00143898 0.000357075 0.000567995 0.000197499 0.000906699 0.000635589 0.000411591 0.000884473 
0.000380077 0.000241459 0.000905705 0.000352867 0.000390502 0.000898194 0.00185257 0.000302646 0.000288801 
0.00188408 0.000303753 0.000569665 0.00186667 0.000540199 0.00023382 0.00183679 0.000552661 0.000634691 
0.00189846 0.00066653 0.000463127 0.00131475 0.00117877 0.000998797 0.00136062 0.00107224 0.000435141 
0.00139444 0.0013763 0.000618606 0.0015824 0.00118725 0.000916997 0.00161569 0.000953136 0.000677377 
0.000977396 0.00142714 0.000575799 0.00120293 0.00140785 0.000416792 0.000758691 0.00117883 0.000457044 
0.00071301 0.00112241 0.000533113 0.000733409 0.00117009 0.000651802 0.00085103 0.00129696 0.000541469 
0.000257865 0.00178322 0.000987817 3.19369e-05 0.000709257 0.000883929 0.000238929 0.000998376 0.000678019 
0.000198077 0.00107079 0.000950168 0.000328513 0.00100742 0.000925827 0.000349341 0.000898361 0.000971582 
0.00152293 0.000598494 0.000995907 0.00160009 0.000676444 0.000795155 0.00176137 0.001001 0.000887345 
5.40078e-05 0.00190403 0.000360555 0.00039607 0.00204443 0.000835732 0.00058162 0.00190152 0.000382546 
0.00031754 0.00153126 0.000218922 0.000296019 0.00173837 0.000282564 0.000408165 0.00147471 0.000190808 
0.000551293 0.00152893 0.000315501 0.000391827 0.00180852 0.000321485 0.000623887 0.00169617 0.00031588 
[...]
POINT_DATA 27391
SCALARS RADIUS double
LOOKUP_TABLE default
0.00017 0.00017 0.00017 5e-05 0.00015 0.00011 0.00015 0.00015 0.00011 
0.00011 0.00011 9e-05 9e-05 0.00015 0.00015 0.00015 0.00011 0.00017 
0.00017 0.00017 0.00017 0.00017 7e-05 7e-05 7e-05 0.00015 0.00015 
0.00017 0.00017 0.00013 0.00015 0.00015 0.00015 0.00015 0.00013 0.00013 
7e-05 7e-05 7e-05 7e-05 7e-05 9e-05 0.00017 0.00011 0.00011 
0.00011 0.00017 7e-05 7e-05 0.00015 0.00015 0.00011 0.00015 0.00015 
0.00017 7e-05 7e-05 7e-05 7e-05 7e-05 0.00015 0.00017 0.00017 
0.00013 0.00013 0.00013 0.00013 0.00013 0.00017 0.00017 0.00013 0.00015 
7e-05 7e-05 7e-05 7e-05 0.00015 0.00011 0.00011 0.00011 7e-05 
7e-05 7e-05 0.00017 0.00013 0.00013 9e-05 0.00011 0.00015 0.00011 
0.00011 0.00013 0.00013 0.00013 5e-05 0.00011 0.00011 5e-05 5e-05 
5e-05 5e-05 0.00011 9e-05 9e-05 0.00015 0.00015 0.00013 0.00015 
0.00013 0.00015 0.00015 0.00015 0.00015 0.00015 0.00015 0.00013 0.00013 
0.00013 0.00017 0.00017 0.00015 0.00017 9e-05 9e-05 9e-05 9e-05 
9e-05 9e-05 9e-05 9e-05 5e-05 5e-05 5e-05 5e-05 0.00015 
0.00015 0.00013 0.00013 0.00013 5e-05 5e-05 5e-05 5e-05 5e-05 
7e-05 7e-05 7e-05 7e-05 7e-05 0.00013 9e-05 9e-05 9e-05 
0.00013 0.00013 7e-05 7e-05 7e-05 7e-05 0.00013 0.00011 0.00011 
0.00011 7e-05 7e-05 7e-05 7e-05 0.00017 0.00011 9e-05 9e-05 
9e-05 9e-05 0.00013 0.00013 9e-05 9e-05 9e-05 9e-05 9e-05 
0.00013 0.00013 0.00013 0.00017 0.00013 0.00013 0.00015 0.00013 7e-05 
7e-05 7e-05 0.00013 0.00013 0.00015 0.00011 0.00011 0.00015 0.00015 
0.00011 0.00011 9e-05 0.00011 0.00013 0.00013 0.00013 5e-05 5e-05 
5e-05 5e-05 5e-05 5e-05 7e-05 7e-05 5e-05 5e-05 5e-05 
5e-05 5e-05 5e-05 5e-05 5e-05 0.00013 0.00011 0.00011 0.00017 
0.00011 0.00011 0.00011 0.00011 0.00011 0.00011 0.00011 0.00015 0.00015 
0.00015 9e-05 9e-05 9e-05 5e-05 5e-05 5e-05 5e-05 9e-05 
9e-05 9e-05 9e-05 9e-05 0.00013 0.00015 0.00015 0.00015 0.00015 
0.00013 0.00013 5e-05 5e-05 5e-05 5e-05 0.00011 5e-05 5e-05 
5e-05 5e-05 5e-05 0.00011 0.00011 0.00011 0.00017 0.00017 0.00017 
5e-05 5e-05 5e-05 5e-05 5e-05 5e-05 0.00017 0.00017 0.00013 
0.00013 0.00013 7e-05 7e-05 7e-05 7e-05 7e-05 7e-05 7e-05 
0.00011 0.00013 0.00013 0.00013 0.00011 7e-05 7e-05 7e-05 5e-05 
9e-05 0.00017 0.00013 0.00013 0.00013 9e-05 9e-05 5e-05 5e-05 
5e-05 5e-05 5e-05 0.00015 0.00013 0.00013 0.00013 0.00011 0.00011 
9e-05 9e-05 0.00017 0.00013 0.00013 0.00013 0.00011 9e-05 9e-05 
9e-05 9e-05 0.00015 5e-05 0.00011 0.00015 7e-05 7e-05 7e-05 
7e-05 0.00013 0.00011 0.00011 0.00011 0.00011 0.00015 0.00015 0.00013 
0.00013 0.00013 0.00013 5e-05 5e-05 0.00011 0.00011 5e-05 5e-05 
5e-05 5e-05 5e-05 5e-05 5e-05 5e-05 9e-05 9e-05 9e-05 
9e-05 9e-05 0.00015 0.00015 0.00015 0.00013 0.00013 0.00013 0.00015 
0.00015 0.00015 0.00015 0.00015 0.00015 0.00011 0.00011 0.00011 9e-05 
9e-05 9e-05 9e-05 9e-05 9e-05 0.00013 0.00013 0.00013 0.00015 
0.00015 0.00011 0.00011 0.00011 0.00013 0.00011 0.00011 0.00011 0.00013 
0.00017 0.00017 0.00011 9e-05 9e-05 9e-05 0.00011 0.00011 0.00011 
0.00011 5e-05 5e-05 5e-05 5e-05 5e-05 5e-05 5e-05 0.00013 
0.00013 0.00015 9e-05 9e-05 9e-05 9e-05 0.00013 0.00013 0.00017 
0.00017 0.00017 0.00017 0.00011 0.00011 0.00011 5e-05 5e-05 5e-05 
5e-05 5e-05 0.00015 0.00015 5e-05 5e-05 5e-05 5e-05 0.00013 
9e-05 0.00011 0.00011 0.00015 0.00015 0.00015 0.00015 0.00015 0.00011 
0.00015 0.00015 9e-05 9e-05 0.00013 0.00013 0.00011 0.00011 0.00011 
0.00011 9e-05 9e-05 9e-05 9e-05 9e-05 9e-05 9e-05 9e-05 
0.00011 0.00015 0.00015 9e-05 0.00013 0.00013 0.00013 0.00015 0.00015 
0.00013 0.00013 0.00013 5e-05 5e-05 5e-05 5e-05 0.00015 0.00015 
0.00013 0.00013 9e-05 9e-05 9e-05 9e-05 5e-05 5e-05 0.00015 
0.00015 0.00015 0.00015 0.00015 0.00015 0.00017 0.00017 0.00017 0.00017 
0.00013 0.00013 0.00013 0.00013 0.00017 0.00017 0.00017 0.00015 0.00017 
0.00017 0.00017 0.00011 0.00011 0.00011 0.00015 0.00015 0.00015 0.00011 
0.00011 0.00011 0.00013 0.00013 0.00011 5e-05 5e-05 5e-05 5e-05 
7e-05 7e-05 7e-05 7e-05 7e-05 5e-05 5e-05 5e-05 0.00013 
0.00015 0.00015 0.00015 9e-05 9e-05 9e-05 9e-05 5e-05 5e-05 
5e-05 5e-05 5e-05 5e-05 5e-05 5e-05 5e-05 0.00013 0.00013 
0.00013 0.00013 0.00011 7e-05 7e-05 0.00013 0.00017 0.00011 0.00011 
0.00011 0.00011 0.00015 9e-05 9e-05 0.00015 0.00015 0.00015 9e-05 
9e-05 9e-05 9e-05 0.00013 0.00015 0.00015 0.00013 0.00013 0.00013 
0.00013 7e-05 7e-05 7e-05 7e-05 0.00011 0.00011 0.00011 0.00011 
0.00011 0.00011 5e-05 5e-05 5e-05 5e-05 5e-05 5e-05 5e-05 
5e-05 9e-05 9e-05 9e-05 9e-05 9e-05 0.00011 0.00015 7e-05 
7e-05 7e-05 0.00011 0.00015 7e-05 7e-05 7e-05 9e-05 9e-05 
9e-05 9e-05 0.00013 0.00013 0.00011 0.00011 0.00015 9e-05 9e-05 
9e-05 0.00017 0.00013 0.00013 0.00015 0.00015 0.00015 0.00015 0.00015 
0.00011 9e-05 9e-05 9e-05 9e-05 9e-05 0.00013 0.00015 0.00015 
0.00015 0.00015 0.00015 7e-05 7e-05 0.00015 0.00017 0.00017 0.00017 
0.00017 0.00011 0.00011 0.00011 0.00015 0.00015 0.00017 0.00017 5e-05 
5e-05 0.00013 0.00013 0.00013 0.00013 9e-05 9e-05 9e-05 9e-05 
9e-05 0.00015 0.00015 0.00017 0.00017 0.00013 0.00013 0.00013 0.00013 
0.00015 0.00011 0.00011 0.00011 0.00011 0.00011 0.00011 0.00011 0.00011 
0.00013 0.00013 0.00013 0.00013 0.00017 0.00017 0.00017 0.00015 9e-05 
9e-05 9e-05 9e-05 9e-05 7e-05 7e-05 7e-05 7e-05 7e-05 
7e-05 9e-05 9e-05 5e-05 0.00015 0.00015 0.00015 0.00011 0.00011 
0.00011 0.00011 0.00011 0.00015 0.00015 0.00013 5e-05 5e-05 5e-05 
5e-05 5e-05 5e-05 0.00013 0.00011 9e-05 9e-05 9e-05 9e-05 
9e-05 9e-05 0.00013 0.00013 0.00013 0.00013 0.00013 9e-05 9e-05 
9e-05 9e-05 0.00011 0.00011 0.00015 0.00015 0.00015 0.00011 0.00017 
0.00013 0.00013 0.00013 0.00017 0.00013 0.00013 0.00013 0.00013 0.00013 
0.00017 0.00015 0.00015 0.00015 0.00015 0.00013 0.00015 0.00015 0.00015 
0.00015 0.00013 0.00013 0.00013 9e-05 9e-05 9e-05 0.00011 0.00011 
0.00011 0.00013 0.00013 0.00011 0.00017 0.00017 0.00011 9e-05 0.00015 
5e-05 5e-05 5e-05 5e-05 7e-05 7e-05 7e-05 7e-05 7e-05 
0.00011 0.00013 0.00013 5e-05 5e-05 5e-05 9e-05 9e-05 9e-05 
0.00011 0.00011 0.00011 7e-05 7e-05 7e-05 9e-05 7e-05 7e-05 
0.00015 0.00015 0.00015 0.00011 0.00011 0.00011 0.00017 0.00017 0.00017 
0.00015 9e-05 9e-05 9e-05 9e-05 9e-05 9e-05 9e-05 0.00015 
7e-05 0.00015 0.00015 0.00017 0.00017 0.00011 0.00011 0.00011 0.00011 
0.00011 0.00011 0.00017 0.00017 0.00017 5e-05 5e-05 5e-05 5e-05 
5e-05 0.00017 0.00015 0.00017 0.00013 0.00013 9e-05 9e-05 0.00015 
0.00015 0.00015 0.00013 0.00013 0.00013 5e-05 5e-05 5e-05 5e-05 
0.00011 0.00011 0.00011 0.00013 0.00013 0.00013 0.00011 0.00011 0.00011 
5e-05 5e-05 5e-05 5e-05 0.00017 0.00017 0.00013 9e-05 7e-05 
7e-05 7e-05 0.00017 0.00017 7e-05 7e-05 7e-05 7e-05 0.00015 
0.00011 0.00015 0.00015 0.00011 9e-05 9e-05 9e-05 0.00015 0.00015 
0.00015 0.00017 0.00017 0.00017 0.00017 5e-05 5e-05 5e-05 5e-05 
5e-05 5e-05 0.00015 0.00013 0.00013 0.00013 7e-05 7e-05 7e-05 
7e-05 0.00013 0.00015 0.00015 9e-05 9e-05 9e-05 9e-05 0.00013 
0.00011 0.00011 0.00011 0.00011 0.00013 0.00013 0.00017 0.00017 0.00017 
0.00013 0.00013 0.00013 0.00013 0.00013 0.00013 0.00013 9e-05 9e-05 
9e-05 9e-05 0.00015 0.00015 9e-05 0.00017 0.00017 0.00011 0.00011 
0.00011 0.00011 0.00015 0.00015 0.00011 0.00011 0.00011 0.00011 0.00011 
0.00011 0.00011 0.00011 0.00011 0.00011 0.00017 0.00011 0.00017 0.00017 
9e-05 9e-05 9e-05 0.00011 0.00013 0.00013 0.00011 0.00011 0.00011 
0.00015 5e-05 5e-05 5e-05 5e-05 5e-05 5e-05 5e-05 5e-05 
5e-05 5e-05 5e-05 5e-05 0.00013 0.00013 0.00017 0.00017 0.00011 
0.00011 0.00011 5e-05 5e-05 5e-05 5e-05 0.00015 0.00015 5e-05 
5e-05 0.00013 0.00013 0.00013 7e-05 7e-05 0.00013 0.00013 0.00013 
0.00013 0.00011 0.00011 0.00011 0.00011 0.00017 9e-05 9e-05 9e-05 
0.00015 0.00015 0.00015 0.00015 5e-05 5e-05 5e-05 5e-05 5e-05 
5e-05 5e-05 5e-05 9e-05 9e-05 9e-05 9e-05 7e-05 0.00011 
0.00011 0.00011 0.00013 5e-05 5e-05 5e-05 9e-05 9e-05 9e-05 
9e-05 9e-05 9e-05 9e-05 0.00017 0.00017 0.00017 0.00017 0.00015 
0.00015 0.00013 0.00013 0.00011 0.00011 7e-05 0.00013 9e-05 0.00011 
0.00011 0.00011 0.00011 0.00015 5e-05 5e-05 5e-05 5e-05 9e-05 
9e-05 9e-05 7e-05 7e-05 7e-05 7e-05 5e-05 0.00013 0.00013 
0.00013 7e-05 7e-05 7e-05 7e-05 0.00011 0.00011 0.00011 0.00017 
0.00017 5e-05 5e-05 5e-05 5e-05 5e-05 5e-05 5e-05 5e-05 
5e-05 5e-05 5e-05 5e-05 5e-05 9e-05 9e-05 0.00013 0.00013 
0.00013 0.00013 0.00011 0.00011 0.00011 0.00015 0.00015 0.00015 0.00015 
5e-05 5e-05 5e-05 0.00011 0.00011 7e-05 7e-05 7e-05 7e-05 
0.00017 0.00017 9e-05 9e-05 9e-05 5e-05 5e-05 5e-05 5e-05 
5e-05 5e-05 5e-05 5e-05 5e-05 5e-05 5e-05 5e-05 5e-05 
5e-05 7e-05 0.00011 7e-05 7e-05 7e-05 7e-05 7e-05 7e-05 
7e-05 0.00015 0.00015 0.00011 0.00011 0.00011 0.00011 0.00011 0.00015 
0.00015 0.00013 9e-05 9e-05 9e-05 9e-05 0.00015 0.00015 0.00017 
5e-05 5e-05 5e-05 5e-05 5e-05 0.00013 0.00013 0.00013 0.00013 
0.00015 7e-05 7e-05 0.00013 0.00013 0.00011 0.00011 0.00017 9e-05 
0.00017 0.00017 0.00017 5e-05 9e-05 9e-05 0.00015 0.00015 0.00015 
9e-05 9e-05 0.00011 0.00011 0.00011 0.00011 0.00011 0.00017 0.00011 
0.00011 0.00011 0.00011 7e-05 0.00017 0.00017 0.00011 7e-05 7e-05 
7e-05 7e-05 9e-05 9e-05 9e-05 0.00013 0.00013 0.00011 0.00011 
0.00011 7e-05 7e-05 5e-05 5e-05 5e-05 5e-05 5e-05 5e-05 
5e-05 0.00017 0.00017 0.00017 0.00011 0.00015 0.00015 0.00011 0.00011 
0.00017 0.00017 0.00017 5e-05 5e-05 0.00017 0.00015 0.00015 0.00015 
0.00015 5e-05 5e-05 5e-05 5e-05 9e-05 9e-05 9e-05 9e-05 
9e-05 9e-05 9e-05 7e-05 7e-05 7e-05 7e-05 7e-05 7e-05 
7e-05 7e-05 5e-05 5e-05 5e-05 5e-05 5e-05 5e-05 5e-05 
5e-05 0.00011 0.00011 0.00011 7e-05 7e-05 7e-05 7e-05 7e-05 
7e-05 9e-05 9e-05 9e-05 9e-05 9e-05 9e-05 0.00013 0.00011 
0.00011 0.00011 7e-05 7e-05 7e-05 7e-05 7e-05 0.00017 0.00017 
0.00011 0.00011 0.00011 7e-05 0.00015 7e-05 7e-05 0.00013 7e-05 
7e-05 7e-05 7e-05 0.00013 0.00013 0.00013 0.00015 0.00015 7e-05 
0.00015 0.00015 0.00013 0.00013 0.00013 0.00013 0.00011 0.00011 0.00017 
0.00017 0.00017 0.00017 5e-05 5e-05 5e-05 5e-05 5e-05 5e-05 
5e-05 0.00015 0.00015 0.00015 0.00011 0.00011 0.00013 0.00013 0.00013 
0.00013 7e-05 7e-05 7e-05 7e-05 7e-05 0.00015 0.00015 0.00017 
0.00011 5e-05 5e-05 5e-05 5e-05 5e-05 5e-05 5e-05 5e-05 
5e-05 5e-05 5e-05 0.00011 0.00011 0.00011 0.00011 9e-05 9e-05 
9e-05 0.00013 7e-05 0.00017 0.00017 0.00017 0.00013 0.00011 0.00013 
0.00013 0.00013 0.00013 0.00015 0.00015 0.00015 9e-05 9e-05 9e-05 
9e-05 0.00017 5e-05 5e-05 5e-05 5e-05 5e-05 0.00017 0.00017 
0.00011 0.00011 0.00011 0.00011 0.00013 9e-05 0.00013 0.00013 0.00013 
0.00015 0.00015 0.00015 0.00015 0.00015 0.00015 0.00013 0.00013 0.00013 
0.00013 0.00011 0.00011 0.00011 0.00013 0.00013 0.00011 0.00011 0.00013 
0.00013 0.00011 0.00011 0.00011 0.00011 9e-05 9e-05 9e-05 9e-05 
0.00013 0.00013 0.00013 0.00015 0.00015 0.00011 0.00017 0.00017 0.00011 
0.00011 0.00013 0.00011 5e-05 5e-05 5e-05 5e-05 5e-05 5e-05 
5e-05 0.00011 0.00013 0.00013 0.00017 0.00015 0.00017 0.00017 0.00017 
5e-05 9e-05 9e-05 0.00015 0.00015 0.00015 9e-05 9e-05 0.00015 
0.00015 5e-05 5e-05 5e-05 5e-05 5e-05 5e-05 5e-05 5e-05 
0.00017 0.00017 0.00017 0.00017 5e-05 5e-05 5e-05 5e-05 5e-05 
5e-05 0.00011 0.00013 0.00013 0.00013 0.00013 0.00013 0.00013 0.00013 
0.00013 5e-05 5e-05 5e-05 5e-05 5e-05 5e-05 0.00011 0.00011 
0.00017 0.00017 9e-05 0.00017 7e-05 7e-05 0.00015 5e-05 5e-05 
5e-05 5e-05 0.00015 0.00015 0.00015 0.00011 0.00011 0.00011 0.00011 
0.00011 0.00011 0.00011 0.00013 0.00013 0.00013 0.00013 7e-05 7e-05 
7e-05 7e-05 0.00013 0.00013 0.00013 9e-05 9e-05 0.00013 0.00013 
0.00015 0.00015 0.00015 0.00011 0.00011 0.00013 0.00013 0.00013 0.00017 
0.00017 7e-05 7e-05 0.00013 0.00013 7e-05 0.00011 0.00011 0.00011 
0.00015 0.00015 0.00013 0.00013 0.00015 0.00015 0.00015 0.00011 7e-05 
7e-05 7e-05 7e-05 5e-05 5e-05 5e-05 0.00017 9e-05 9e-05 
7e-05 0.00015 0.00015 0.00017 0.00017 0.00017 0.00011 9e-05 9e-05 
0.00013 0.00013 0.00017 0.00017 5e-05 5e-05 5e-05 0.00017 0.00017 
0.00011 0.00011 0.00011 0.00017 0.00017 0.00011 0.00017 0.00013 0.00011 
0.00017 0.00011 0.00011 0.00011 0.00011 0.00017 7e-05 0.00013 0.00011 
0.00015 0.00015 0.00015 0.00015 0.00015 7e-05 0.00013 9e-05 9e-05 
0.00013 0.00013 0.00011 0.00011 0.00011 0.00011 5e-05 5e-05 5e-05 
5e-05 5e-05 5e-05 5e-05 5e-05 9e-05 0.00013 0.00017 0.00017 
0.00017 5e-05 5e-05 5e-05 5e-05 5e-05 5e-05 5e-05 5e-05 
0.00013 0.00013 0.00013 0.00013 0.00013 9e-05 9e-05 9e-05 0.00015 
0.00011 0.00011 5e-05 5e-05 5e-05 5e-05 7e-05 7e-05 7e-05 
7e-05 0.00011 0.00011 0.00011 0.00011 0.00011 0.00011 0.00011 0.00017 
0.00011 0.00011 0.00011 0.00015 0.00013 0.00013 0.00013 0.00013 0.00013 
0.00017 0.00017 0.00017 0.00013 0.00013 0.00011 0.00011 0.00011 0.00013 
0.00013 0.00013 0.00013 0.00011 9e-05 0.00017 5e-05 5e-05 7e-05 
7e-05 7e-05 7e-05 7e-05 7e-05 7e-05 7e-05 7e-05 7e-05 
7e-05 0.00013 0.00017 0.00017 0.00017 0.00013 9e-05 9e-05 9e-05 
9e-05 9e-05 9e-05 5e-05 5e-05 5e-05 5e-05 5e-05 5e-05 
5e-05 5e-05 0.00011 0.00011 0.00013 0.00013 7e-05 7e-05 7e-05 
9e-05 9e-05 9e-05 9e-05 7e-05 7e-05 7e-05 5e-05 5e-05 
5e-05 5e-05 5e-05 5e-05 5e-05 0.00015 0.00015 5e-05 5e-05 
5e-05 9e-05 9e-05 9e-05 9e-05 9e-05 9e-05 9e-05 9e-05 
9e-05 9e-05 5e-05 5e-05 5e-05 5e-05 5e-05 7e-05 7e-05 
7e-05 7e-05 0.00015 0.00015 9e-05 9e-05 9e-05 9e-05 5e-05 
5e-05 5e-05 5e-05 0.00017 0.00017 0.00017 0.00013 0.00013 0.00015 
0.00015 0.00011 9e-05 9e-05 0.00013 0.00013 0.00013 0.00013 0.00011 
0.00011 0.00011 0.00017 0.00017 0.00017 0.00013 0.00013 0.00013 0.00013 
7e-05 7e-05 7e-05 0.00013 0.00013 9e-05 0.00013 0.00013 0.00013 
0.00017 0.00017 0.00015 0.00013 9e-05 9e-05 0.00011 0.00011 0.00011 
0.00011 0.00011 0.00011 0.00011 9e-05 9e-05 9e-05 7e-05 7e-05 
0.00017 0.00017 5e-05 5e-05 5e-05 0.00011 0.00011 0.00017 0.00011 
0.00011 0.00011 0.00011 0.00011 5e-05 5e-05 5e-05 5e-05 5e-05 
5e-05 5e-05 5e-05 5e-05 5e-05 5e-05 5e-05 0.00011 0.00013 
0.00013 0.00013 7e-05 0.00013 0.00015 0.00011 0.00011 0.00011 0.00011 
0.00011 0.00011 0.00017 0.00013 0.00013 0.00013 7e-05 0.00015 7e-05 
7e-05 7e-05 0.00015 0.00015 0.00013 0.00011 0.00011 0.00011 7e-05 
0.00013 0.00013 0.00013 0.00013 0.00013 0.00013 0.00013 0.00013 5e-05 
0.00013 5e-05 5e-05 5e-05 5e-05 5e-05 5e-05 0.00017 0.00017 
0.00017 0.00017 9e-05 9e-05 7e-05 7e-05 7e-05 7e-05 7e-05 
9e-05 0.00011 0.00015 5e-05 5e-05 5e-05 0.00013 0.00011 0.00011 
0.00011 0.00011 0.00011 0.00013 0.00015 0.00017 0.00017 0.00017 0.00017 
0.00017 0.00017 0.00017 0.00011 0.00011 9e-05 9e-05 0.00015 9e-05 
9e-05 9e-05 9e-05 9e-05 0.00015 9e-05 0.00017 0.00011 0.00011 
9e-05 0.00017 0.00017 0.00017 0.00013 0.00013 9e-05 0.00013 0.00017 
5e-05 5e-05 5e-05 5e-05 5e-05 5e-05 5e-05 9e-05 0.00015 
5e-05 5e-05 5e-05 0.00013 0.00013 0.00013 0.00013 0.00013 0.00013 
0.00015 0.00015 0.00015 7e-05 7e-05 7e-05 7e-05 7e-05 7e-05 
0.00011 0.00011 0.00011 0.00013 0.00013 0.00013 0.00015 0.00015 0.00017 
5e-05 0.00017 0.00015 0.00011 0.00017 0.00017 0.00017 0.00017 5e-05 
5e-05 5e-05 0.00011 0.00017 0.00017 0.00017 0.00013 0.00013 0.00013 
9e-05 9e-05 9e-05 0.00013 0.00013 0.00011 0.00017 0.00017 0.00015 
0.00015 7e-05 7e-05 7e-05 0.00011 0.00011 0.00011 0.00015 0.00015 
9e-05 9e-05 0.00017 0.00017 9e-05 9e-05 9e-05 9e-05 0.00013 
0.00013 0.00013 0.00013 0.00017 0.00017 0.00013 0.00013 7e-05 7e-05 
9e-05 9e-05 9e-05 9e-05 0.00017 0.00017 0.00013 0.00013 0.00013 
0.00015 9e-05 9e-05 0.00011 0.00011 0.00011 0.00011 0.00017 0.00017 
0.00017 0.00017 0.00017 0.00017 0.00017 5e-05 5e-05 5e-05 0.00015 
0.00011 0.00013 0.00011 0.00011 0.00011 0.00011 0.00015 0.00017 5e-05 
5e-05 5e-05 0.00013 0.00013 0.00013 9e-05 0.00011 0.00011 0.00011 
0.00011 0.00011 0.00011 0.00013 0.00017 0.00017 0.00017 0.00013 0.00011 
0.00011 0.00017 0.00017 0.00017 5e-05 5e-05 5e-05 0.00013 0.00011 
0.00011 0.00011 0.00017 0.00015 0.00015 9e-05 9e-05 0.00011 0.00011 
0.00011 0.00011 0.00011 0.00017 0.00013 0.00017 0.00017 0.00013 0.00013 
0.00013 0.00013 0.00013 0.00013 9e-05 9e-05 9e-05 9e-05 0.00015 
0.00011 0.00011 0.00011 0.00011 9e-05 9e-05 9e-05 9e-05 9e-05 
0.00015 0.00013 0.00013 0.00013 0.00013 0.00013 0.00013 0.00015 0.00015 
7e-05 7e-05 7e-05 7e-05 7e-05 0.00011 0.00011 5e-05 0.00011 
0.00017 0.00011 0.00011 0.00011 0.00013 0.00011 0.00011 7e-05 9e-05 
9e-05 9e-05 9e-05 0.00013 0.00013 0.00013 0.00013 0.00013 7e-05 
0.00015 0.00013 0.00015 0.00015 9e-05 9e-05 9e-05 0.00017 0.00017 
0.00015 0.00015 0.00015 0.00015 0.00011 0.00011 0.00011 5e-05 5e-05 
5e-05 5e-05 5e-05 5e-05 5e-05 5e-05 9e-05 0.00013 0.00013 
0.00013 0.00013 0.00013 0.00013 9e-05 9e-05 9e-05 5e-05 5e-05 
5e-05 5e-05 5e-05 5e-05 0.00011 9e-05 9e-05 9e-05 0.00015 
0.00015 0.00015 0.00015 0.00013 0.00013 0.00013 0.00013 5e-05 5e-05 
5e-05 5e-05 0.00013 0.00017 0.00017 0.00017 0.00013 0.00013 0.00013 
0.00013 0.00013 0.00017 0.00017 0.00017 0.00017 0.00011 0.00011 0.00011 
0.00015 0.00015 0.00015 0.00015 5e-05 5e-05 5e-05 0.00011 0.00013 
0.00015 0.00013 5e-05 5e-05 5e-05 5e-05 5e-05 5e-05 5e-05 
5e-05 5e-05 5e-05 5e-05 5e-05 5e-05 5e-05 5e-05 9e-05 
9e-05 9e-05 9e-05 5e-05 5e-05 5e-05 5e-05 5e-05 5e-05 
5e-05 0.00015 0.00013 0.00013 5e-05 5e-05 5e-05 5e-05 5e-05 
5e-05 5e-05 5e-05 5e-05 0.00017 9e-05 0.00013 0.00013 0.00013 
5e-05 5e-05 9e-05 9e-05 0.00011 0.00011 0.00013 0.00013 0.00017 
0.00017 0.00017 0.00015 0.00015 0.00015 0.00013 0.00013 0.00013 0.00011 
0.00013 0.00013 0.00017 0.00015 0.00015 0.00017 5e-05 5e-05 5e-05 
5e-05 5e-05 5e-05 5e-05 5e-05 5e-05 5e-05 5e-05 5e-05 
5e-05 5e-05 5e-05 9e-05 0.00011 0.00013 0.00013 9e-05 9e-05 
9e-05 9e-05 5e-05 5e-05 5e-05 5e-05 5e-05 9e-05 9e-05 
0.00015 0.00015 0.00011 0.00013 0.00013 0.00015 9e-05 9e-05 9e-05 
0.00017 0.00011 0.00011 0.00013 0.00013 9e-05 0.00013 0.00017 0.00017 
0.00017 0.00015 0.00015 5e-05 5e-05 5e-05 0.00015 0.00013 9e-05 
9e-05 0.00015 0.00013 9e-05 9e-05 9e-05 0.00013 0.00013 0.00013 
0.00013 0.00013 0.00013 0.00013 0.00013 9e-05 0.00011 0.00011 0.00011 
0.00011 0.00011 0.00015 9e-05 9e-05 9e-05 9e-05 9e-05 9e-05 
0.00015 0.00013 0.00013 0.00017 0.00017 0.00017 0.00015 0.00017 0.00017 
9e-05 0.00017 0.00015 0.00015 0.00015 0.00011 0.00011 0.00011 9e-05 
0.00015 0.00015 0.00015 0.00015 9e-05 9e-05 9e-05 9e-05 0.00015 
0.00015 0.00015 9e-05 0.00013 0.00013 0.00017 9e-05 0.00017 0.00011 
0.00017 0.00017 0.00017 0.00017 0.00015 0.00015 9e-05 5e-05 5e-05 
5e-05 5e-05 5e-05 5e-05 0.00011 0.00011 0.00013 0.00013 0.00013 
7e-05 7e-05 7e-05 0.00015 0.00017 0.00011 7e-05 7e-05 7e-05 
7e-05 7e-05 9e-05 7e-05 7e-05 0.00013 0.00013 0.00013 7e-05 
7e-05 7e-05 7e-05 7e-05 5e-05 5e-05 5e-05 5e-05 5e-05 
5e-05 5e-05 5e-05 5e-05 5e-05 5e-05 5e-05 5e-05 0.00011 
0.00011 0.00011 7e-05 7e-05 7e-05 7e-05 7e-05 0.00011 0.00011 
0.00011 0.00017 7e-05 7e-05 7e-05 0.00015 0.00015 0.00011 0.00015 
0.00013 0.00013 0.00013 0.00013 9e-05 9e-05 0.00017 0.00017 0.00017 
9e-05 0.00017 0.00011 0.00011 0.00015 0.00015 0.00015 0.00011 0.00011 
0.00011 0.00013 0.00013 9e-05 9e-05 9e-05 9e-05 0.00015 0.00015 
0.00017 0.00013 5e-05 5e-05 5e-05 5e-05 5e-05 0.00017 0.00017 
0.00011 0.00011 0.00011 9e-05 9e-05 9e-05 5e-05 5e-05 5e-05 
5e-05 5e-05 5e-05 7e-05 7e-05 7e-05 7e-05 0.00011 0.00013 
0.00013 0.00013 0.00013 0.00011 0.00013 0.00013 0.00013 9e-05 9e-05 
9e-05 9e-05 9e-05 0.00011 0.00011 0.00011 0.00011 0.00017 0.00017 
0.00017 0.00017 0.00015 0.00013 0.00013 0.00015 0.00015 0.00015 0.00015 
0.00015 5e-05 0.00015 0.00011 9e-05 0.00011 0.00011 0.00011 0.00011 
0.00011 0.00011 0.00011 5e-05 5e-05 5e-05 5e-05 5e-05 5e-05 
5e-05 5e-05 5e-05 5e-05 5e-05 5e-05 5e-05 0.00013 0.00011 
0.00011 0.00011 5e-05 5e-05 5e-05 5e-05 5e-05 5e-05 0.00011 
0.00011 0.00017 0.00017 0.00013 0.00017 0.00011 0.00011 0.00015 0.00015 
0.00015 0.00015 0.00017 0.00011 0.00011 0.00011 0.00013 0.00015 0.00013 
0.00013 0.00013 5e-05 0.00015 0.00015 0.00015 0.00015 0.00011 9e-05 
9e-05 9e-05 9e-05 0.00017 0.00017 5e-05 5e-05 5e-05 9e-05 
9e-05 0.00017 0.00013 0.00013 0.00013 0.00013 0.00013 0.00013 0.00015 
0.00015 0.00015 0.00015 0.00013 7e-05 7e-05 0.00015 0.00015 0.00011 
0.00015 0.00015 0.00015 0.00011 0.00015 0.00013 0.00013 0.00011 0.00013 
0.00013 0.00013 0.00017 0.00017 0.00013 0.00013 0.00015 0.00015 0.00013 