# vtk DataFile Version 4.1
vtk output
ASCII
DATASET POLYDATA
FIELD FieldData 2
PORINGUMAS 1 1 double
0.69161949476 
UNIQUE_RADIUS 1 7 double
5e-05 7e-05 9e-05 0.00011 0.00013 0.00015 0.00017 
POINTS 16898 float
0 0 0 0.00034 0 0 0.00017 0.000294449 0 
0.00017 9.81495e-05 9.93311e-05 8.10394e-05 0.000149511 0.000247142 0.000316011 0.000182449 0.000211038 
0.000197693 0.000357855 0.000271317 0.000443272 0.000255923 4.73115e-05 0.000380182 0.000489915 0.000141478 
0.000253879 0.000191803 0.000463331 1.1715e-05 0.000352426 0.000197951 0.000140808 0.000505511 0.000148998 
5.283e-05 0.000306064 0.000399114 0.000389184 0.000331425 0.000322626 3.34126e-05 0.000518532 0.000340562 
0.00013955 0.000428364 0.000560118 0.000248194 1.64347e-05 0.000299582 1.97529e-05 0.000139281 0.000458185 
0.000462347 0.000168732 0.000346675 0.000341975 0.000414742 0.000475038 0.000210064 0.000713966 0.000245695 
5.96166e-05 0.000204103 0.000664605 0.000351327 0.000338325 0.000681127 0.0001345 0.000684128 0.000513649 
0.000294952 6.92121e-05 0.000734042 0.000131949 0.000410499 0.000839444 0.000483458 0.000164107 0.000582186 
0.000544903 0.000203282 0.000831765 0.000600782 0.000343649 0.000435218 8.17049e-06 0.000454951 7.51668e-05 
0.00041524 0.000456593 0.000926745 0.000482306 0.000569597 0.00059305 9.46129e-05 0.000143485 0.000915006 
2.15616e-05 0.000666739 1.71417e-05 0.0006393 6.6405e-05 0.000428018 0.000441348 4.8829e-05 0.000450513 
0.000604119 0.000191703 0.000276154 0.00066133 0.000191701 0.000582342 0.000113426 2.05909e-05 0.000555849 
0.000600898 0.000340716 0.000175234 0.000781113 0.000212756 0.000301249 0.000700526 0.000340768 0.000675307 
0.000529244 0.00057366 0.000337354 0.000620006 8.99066e-06 0.000154648 0.000723984 9.65467e-06 0.000688802 
8.37217e-05 1.15005e-05 0.000712804 0.000265194 0.000238397 0.000871487 0.0002584 0.000672007 0.000764451 
0.000374573 0.000822098 0.000472067 0.000823506 0.000241556 0.000522229 0.000668369 0.000428036 0.000874681 
0.000804455 0.000216529 0.000824181 0.000736649 0.000525684 0.000561723 0.000727497 3.97906e-05 0.000967153 
0.00089091 0.000437009 0.000785269 0.000974152 0.00013471 0.000675492 0.000169158 0.000907514 0.000642092 
0.00052735 0.000697367 0.000838093 0.000785523 0.00054215 0.000306889 0.000699064 0.000773595 0.000630479 
0.000981371 0.000448137 0.000520518 0.000999921 0.000102798 0.000952472 0.000915607 2.25231e-05 0.000416673 
0.00114847 0.000204619 0.000467824 0.00114398 0.000318283 0.000801429 0.00064255 0.000640671 0.00046012 
0.000654255 0.000521852 0.000721712 0.000863973 0.000631961 0.000491767 0.000877511 0.000588033 0.000654839 
0.00100861 0.000204481 0.000225254 0.00122458 6.96377e-05 0.000701035 0.00125583 0.000439813 0.000575331 
0.00127918 0.000122917 0.000949591 0.00101718 0.000684236 0.000374316 0.000219797 0.000535044 0.000411189 
1.86477e-05 0.000717528 0.000354079 7.93435e-05 0.000580279 0.000675431 6.4135e-05 0.00074445 0.000690878 
0.00016557 0.000852673 0.00041056 0.00077584 0.000222151 6.14911e-05 1.36161e-05 0.000907844 0.000292806 
0.000936179 0.000422475 0.000103467 0.00113785 0.000420609 0.00028996 0.000555897 2.14487e-05 0.000581064 
0.000530317 5.93455e-05 0.000693672 0.00059872 1.10939e-05 0.000844708 0.000887675 3.79022e-05 0.000800191 
0.000975587 0.000358056 0.000995498 0.0010881 0.000561571 0.000728703 0.00138727 0.000233638 0.000766127 
0.000273248 0.00100695 0.000258614 0.000496138 0.000791606 0.0001995 0.000428517 0.000941127 0.000742108 
0.000210698 0.00053086 7.31945e-06 0.000338883 0.000565187 0.000344033 0.000344342 0.000695687 7.23877e-05 
0.000540826 0.000404313 1.79232e-05 0.000594886 0.000520588 0.000178375 0.000787358 0.000652091 0.000931612 
0.000321042 0.000113868 0.000988847 0.00062244 0.000788984 0.000403561 0.000563414 0.000951641 0.000543885 
0.000642364 0.000884889 0.000835415 0.000800726 0.000756511 0.000413747 0.000932665 0.000727818 0.0005999 
0.000685865 0.000649833 9.22439e-05 0.000952249 0.000658356 0.000144721 0.00112386 0.000544357 0.000965399 
0.00136638 0.000367417 0.000964286 0.000561279 0.00105508 0.000327329 0.000787309 0.000863851 0.000199508 
0.00109141 0.000337767 0.000137053 0.000965209 0.000372269 0.000273868 0.00101483 0.000314551 0.000367542 
0.00117689 0.000245608 0.000274144 0.000974567 0.000492119 0.000264948 0.0010478 0.00053691 0.000186204 
0.00112316 0.000545649 0.000418604 0.00125675 0.000363365 0.000412375 0.00107507 0.000256037 4.75737e-07 
0.000717315 0.00044881 8.57299e-06 0.001124 0.000561046 4.76001e-05 0.00135398 0.000273379 0.000290521 
0.000110214 0.000874606 9.79623e-05 0.000301357 0.000855412 7.46429e-05 2.94156e-05 0.000626639 0.000820199 
0.00021856 0.000581957 0.000983321 8.45688e-05 0.000824945 0.000827637 0.000362573 0.000809281 0.000931496 
4.12062e-05 0.00110446 9.53662e-05 8.75012e-05 0.00111221 0.000469372 0.00052764 0.000693813 0.000442999 
0.000633261 0.000690698 0.000304452 0.000653953 0.000919883 0.000441934 0.000731393 0.000876019 0.000391147 
0.00124853 0.000623011 0.000356167 0.00123104 0.000119186 0.000121083 0.00127378 0.000374303 6.47294e-05 
0.00144321 0.000490476 0.000402356 0.00094494 0.000946398 0.000441042 0.00132059 2.1285e-05 0.000344681 
0.00142125 0.000200514 0.000530866 0.000274385 0.00103924 6.29505e-07 0.000175514 0.00124778 0.000265719 
0.00153478 0.000170305 0.000944535 0.00132069 0.000560521 0.000796289 0.00116764 0.000759472 0.000176069 
0.00118611 0.000712515 0.000569926 0.00138943 0.000584074 0.000165825 0.00149203 0.00019901 5.85467e-05 
0.00147965 1.9779e-05 0.000708418 0.000436306 0.00117896 0.000109535 0.000355009 0.00121884 0.000422383 
0.000731377 0.0010937 0.00054636 0.000824233 0.00113231 0.00026997 0.00065547 0.00112359 0.000814212 
0.000880023 0.000915881 0.000822856 0.000223021 0.00130974 3.87735e-05 0.000701723 0.00028109 0.000928479 
0.000801593 0.000348748 0.000914236 0.000849578 0.000264605 0.000678398 0.000823065 0.000191682 0.000981141 
0.00094896 0.000273793 0.000862117 0.000349266 0.00144068 0.000251648 0.00027467 0.00119322 0.000689384 
0.000612618 0.00132617 0.000445099 0.000797258 0.000339069 0.000398123 0.000787357 0.000393449 0.000487275 
0.000913117 0.000220891 0.000391298 0.00161683 0.000185804 0.000331037 0.00075944 0.00130402 0.000658528 
0.000866535 0.00127235 0.000460232 0.000947151 0.00109934 0.000651287 0.000625399 0.00138136 0.000150496 
0.000689071 0.00108988 2.84524e-05 0.000167491 0.000754108 0.000970836 0.000216088 0.000945037 0.000853727 
0.000878571 0.00129143 7.16552e-05 0.000961572 0.00104018 6.93485e-05 0.000293802 0.00103605 0.00047571 
0.000177402 0.00130997 0.000434622 0.000512523 0.00114586 0.000521702 0.000408839 0.00140758 0.000460825 
0.000813919 0.00143471 0.000321417 0.0010401 0.00117617 0.000365237 0.000978592 0.00131697 0.000644222 
0.00116372 0.00108378 0.000549034 0.00117579 0.000993207 0.000289653 0.00112038 0.00123128 0.000145878 
0.00106647 0.00140328 0.000438241 0.000232295 0.00146823 0.000577246 0.000503747 0.0016057 0.000448894 
0.000910464 0.000683316 0.000751975 0.000994798 0.000869414 0.000641011 0.00104692 0.00073596 0.000711614 
0.000309396 0.00107387 0.000870905 0.000400035 0.00106464 0.000562295 0.000485051 0.00113668 0.000658673 
0.000436842 0.00114295 0.000829286 0.000515641 0.000873343 0.000932409 0.000884696 0.00127728 0.000861497 
0.000851356 0.00149736 0.00055005 0.00112605 0.001189 0.000783789 0.00115246 0.000898647 0.000760546 
0.00101007 0.00109343 0.000995957 0.00107392 0.000798574 0.000987301 0.00124873 0.000991001 0.000983709 
0.00138687 0.000797311 0.000711724 0.00134898 0.00106622 0.000730609 0.00106076 0.00139772 0.000807706 
0.00117398 0.00130515 0.000603204 0.00107654 0.00130107 0.000966515 0.00130745 0.00118915 0.000908272 
0.0012936 0.00125546 0.000697134 0.00120575 0.00136862 0.000746599 0.00121997 0.0013228 0.000899013 
0.00139154 0.000807174 0.000299324 0.00159419 0.000425369 0.000187872 3.69236e-05 0.00133745 0.000152791 
0.000431116 0.00137496 9.73673e-06 0.00120986 0.000972255 3.27485e-05 0.00127495 0.00122455 0.000354838 
0.000124826 0.00113445 0.000918496 0.000494869 0.00128016 0.000728806 0.000487808 0.0010289 0.00095747 
0.00070828 0.00096233 0.000983935 0.000683127 0.00136114 0.000834349 0.00101315 0.0014372 0.000206711 
0.0013426 0.00114079 0.000140344 2.09701e-06 0.000859706 0.000507166 2.48582e-05 0.000989672 0.00078641 
0.00147167 0.000416531 0.00067766 0.00159501 0.000229728 0.000693822 0.00127726 0.000787952 0.000903976 
5.09878e-06 0.00138425 0.000365385 0.000123208 0.00153666 0.000117161 0.00100345 2.93203e-05 3.31807e-05 
0.00116699 0.00027687 0.000179674 0.000592917 0.000166178 3.1284e-06 0.00110322 0.000871077 0.00058962 
0.00103293 0.00103297 0.000768918 0.00116007 0.000719253 0.000747905 0.00125506 0.000872571 0.000614966 
0.00131427 0.00090632 0.000839023 0.0013804 0.00135982 0.000550242 0.00149651 1.51388e-05 0.000212726 
0.00147667 0.000431748 2.00081e-06 0.00171638 0.000254082 0.000123607 0.000336099 0.00124691 0.000936252 
0.000245231 0.000628145 6.84998e-05 0.00023379 0.00073566 4.82954e-05 0.000408038 0.00078295 2.01584e-05 
0.00045648 0.00065522 5.86952e-05 0.00127215 0.00145961 0.000202732 0.00147653 0.000872121 0.000944023 
0.00152152 0.00129812 0.00024443 0.00143699 0.00102612 0.000467841 0.000381063 0.00144825 0.000813613 
0.00146204 0.00093958 8.6959e-05 0.00147051 0.00128982 0.000783864 0.00126259 0.00157274 0.00045868 
0.00160877 0.00124409 0.000504942 0.00158727 0.000962275 0.000726745 0.000689391 0.00143333 0.000595512 
0.000715893 0.00149691 0.00043152 0.000866697 0.00141204 0.000707796 0.00102094 0.0014651 0.000601044 
0.000933569 0.00151506 0.000390903 0.000887921 0.000313826 0.000364312 8.2483e-06 0.00093314 0.000977534 
3.43223e-06 7.43891e-05 0.000776039 0.000777782 0.00168929 0.00035992 0.000643087 0.00158769 0.00071396 
0.00106419 0.00165695 0.00063742 0.000962736 0.00151036 0.000995597 3.21316e-05 0.00135144 0.000767757 
[...]
POINT_DATA 16898
SCALARS RADIUS double
LOOKUP_TABLE default
0.00017 0.00017 0.00017 5e-05 0.00013 0.00011 0.00011 0.00011 0.00015 
0.00015 9e-05 9e-05 9e-05 9e-05 0.00013 0.00013 9e-05 9e-05 
9e-05 9e-05 0.00015 0.00013 0.00013 0.00013 0.00015 0.00015 0.00011 
0.00015 0.00015 7e-05 0.00015 0.00015 0.00013 0.00015 0.00013 7e-05 
7e-05 7e-05 9e-05 0.00011 0.00011 0.00011 0.00011 0.00015 0.00015 
7e-05 7e-05 0.00015 0.00015 0.00011 0.00011 0.00011 0.00011 0.00013 
0.00013 0.00013 0.00013 0.00013 0.00015 0.00015 0.00015 0.00015 0.00015 
0.00015 0.00015 7e-05 7e-05 7e-05 7e-05 0.00013 0.00013 0.00013 
0.00013 0.00013 7e-05 7e-05 7e-05 7e-05 7e-05 0.00013 0.00013 
0.00013 0.00013 5e-05 5e-05 5e-05 5e-05 0.00011 0.00011 0.00011 
0.00015 0.00015 0.00015 7e-05 7e-05 7e-05 7e-05 7e-05 0.00015 
0.00011 9e-05 9e-05 9e-05 9e-05 9e-05 0.00011 0.00011 0.00013 
0.00013 0.00015 0.00015 5e-05 5e-05 5e-05 5e-05 5e-05 5e-05 
5e-05 5e-05 0.00011 0.00011 0.00011 0.00013 9e-05 9e-05 9e-05 
9e-05 9e-05 9e-05 0.00015 0.00015 5e-05 5e-05 5e-05 5e-05 
0.00011 0.00013 0.00013 0.00013 0.00015 0.00013 0.00013 0.00011 0.00011 
0.00013 0.00013 0.00013 0.00013 0.00013 0.00015 0.00013 0.00013 0.00013 
0.00013 0.00013 0.00015 0.00015 0.00013 5e-05 5e-05 5e-05 5e-05 
5e-05 0.00015 0.00015 0.00015 5e-05 5e-05 5e-05 0.00015 0.00011 
0.00011 0.00011 0.00015 0.00015 9e-05 9e-05 0.00013 0.00013 7e-05 
7e-05 7e-05 7e-05 0.00011 0.00011 0.00011 0.00013 0.00013 0.00013 
0.00013 0.00015 0.00015 7e-05 7e-05 7e-05 7e-05 7e-05 7e-05 
7e-05 7e-05 0.00013 0.00013 0.00013 0.00013 0.00013 0.00013 0.00013 
0.00013 0.00013 9e-05 9e-05 9e-05 9e-05 7e-05 7e-05 7e-05 
0.00013 0.00013 9e-05 9e-05 0.00013 0.00013 0.00013 9e-05 9e-05 
9e-05 9e-05 0.00011 0.00011 9e-05 9e-05 0.00011 0.00011 9e-05 
0.00013 0.00013 0.00013 5e-05 7e-05 5e-05 5e-05 5e-05 5e-05 
5e-05 0.00013 9e-05 9e-05 9e-05 0.00011 5e-05 5e-05 5e-05 
5e-05 0.00015 0.00013 0.00015 0.00015 0.00013 0.00013 0.00013 0.00013 
0.00013 0.00013 5e-05 5e-05 5e-05 5e-05 5e-05 5e-05 0.00011 
5e-05 0.00015 0.00015 0.00015 0.00015 0.00015 7e-05 0.00013 7e-05 
0.00011 0.00011 9e-05 9e-05 0.00015 0.00015 0.00015 5e-05 5e-05 
5e-05 0.00011 0.00011 0.00013 0.00011 9e-05 9e-05 0.00011 0.00011 
5e-05 5e-05 5e-05 5e-05 5e-05 5e-05 0.00015 0.00013 0.00013 
9e-05 9e-05 9e-05 0.00013 0.00013 5e-05 9e-05 9e-05 9e-05 
0.00013 0.00013 9e-05 0.00015 0.00015 0.00015 9e-05 9e-05 9e-05 
0.00015 0.00015 7e-05 7e-05 0.00015 0.00015 0.00015 0.00015 0.00013 
0.00013 0.00013 0.00013 0.00011 0.00011 5e-05 5e-05 5e-05 5e-05 
5e-05 5e-05 5e-05 5e-05 5e-05 5e-05 5e-05 5e-05 5e-05 
5e-05 5e-05 9e-05 9e-05 7e-05 7e-05 7e-05 7e-05 7e-05 
7e-05 0.00013 0.00013 0.00015 0.00013 9e-05 9e-05 0.00015 0.00015 
0.00015 0.00015 0.00013 9e-05 0.00013 0.00013 7e-05 7e-05 7e-05 
7e-05 7e-05 0.00013 9e-05 9e-05 9e-05 0.00015 0.00011 9e-05 
9e-05 9e-05 9e-05 0.00011 0.00011 0.00011 0.00011 0.00011 0.00011 
0.00011 9e-05 5e-05 5e-05 5e-05 5e-05 5e-05 5e-05 5e-05 
5e-05 0.00015 0.00015 0.00015 0.00013 0.00013 0.00013 9e-05 9e-05 
9e-05 9e-05 9e-05 9e-05 9e-05 0.00015 0.00015 0.00015 9e-05 
9e-05 0.00011 0.00015 5e-05 0.00013 0.00015 0.00015 0.00013 0.00013 
9e-05 7e-05 7e-05 7e-05 5e-05 5e-05 5e-05 5e-05 5e-05 
0.00015 0.00015 0.00015 5e-05 5e-05 5e-05 9e-05 9e-05 9e-05 
9e-05 9e-05 9e-05 0.00011 0.00011 0.00011 9e-05 9e-05 9e-05 
0.00013 0.00013 0.00013 0.00013 0.00011 0.00011 9e-05 0.00013 0.00015 
0.00013 5e-05 5e-05 5e-05 0.00015 0.00013 0.00013 9e-05 9e-05 
9e-05 9e-05 9e-05 5e-05 0.00013 9e-05 9e-05 9e-05 0.00015 
0.00015 0.00015 0.00015 0.00015 0.00015 0.00015 5e-05 5e-05 5e-05 
5e-05 0.00015 0.00015 0.00013 0.00013 0.00015 0.00015 9e-05 9e-05 
9e-05 0.00011 0.00011 0.00011 5e-05 5e-05 0.00013 0.00013 0.00013 
7e-05 7e-05 0.00013 5e-05 5e-05 5e-05 5e-05 5e-05 5e-05 
5e-05 0.00013 0.00013 0.00015 0.00013 7e-05 0.00015 0.00015 0.00015 
0.00015 7e-05 0.00015 0.00015 5e-05 5e-05 5e-05 5e-05 5e-05 
5e-05 5e-05 0.00013 0.00011 0.00011 0.00011 0.00011 0.00011 0.00011 
0.00011 0.00011 0.00011 0.00011 0.00015 0.00015 0.00011 0.00011 0.00011 
0.00015 0.00015 7e-05 7e-05 7e-05 0.00011 0.00011 0.00015 0.00015 
0.00015 0.00015 9e-05 0.00015 0.00015 0.00015 0.00011 0.00011 0.00015 
7e-05 7e-05 7e-05 7e-05 5e-05 5e-05 5e-05 5e-05 5e-05 
5e-05 5e-05 5e-05 5e-05 5e-05 5e-05 5e-05 0.00015 0.00013 
7e-05 7e-05 0.00013 0.00013 0.00011 0.00011 0.00011 0.00011 0.00015 
0.00015 0.00015 0.00015 7e-05 7e-05 7e-05 7e-05 7e-05 7e-05 
0.00013 0.00013 0.00011 0.00011 9e-05 9e-05 9e-05 0.00015 0.00015 
0.00015 0.00015 0.00015 0.00013 0.00015 0.00015 0.00015 0.00013 0.00013 
7e-05 7e-05 7e-05 7e-05 7e-05 0.00015 0.00011 0.00011 0.00011 
0.00011 0.00011 0.00015 9e-05 9e-05 9e-05 9e-05 9e-05 0.00015 
0.00015 0.00011 0.00011 5e-05 5e-05 5e-05 5e-05 5e-05 5e-05 
5e-05 5e-05 5e-05 0.00011 0.00011 0.00013 0.00013 9e-05 9e-05 
9e-05 9e-05 9e-05 9e-05 0.00015 0.00015 0.00015 0.00011 0.00011 
0.00011 0.00011 0.00015 0.00015 9e-05 0.00015 0.00015 0.00015 7e-05 
7e-05 7e-05 0.00015 0.00015 7e-05 7e-05 7e-05 7e-05 0.00013 
0.00013 0.00013 0.00013 0.00013 0.00013 0.00013 7e-05 0.00011 0.00011 
0.00011 7e-05 7e-05 7e-05 5e-05 5e-05 5e-05 5e-05 5e-05 
5e-05 5e-05 5e-05 0.00015 7e-05 7e-05 7e-05 7e-05 7e-05 
0.00013 0.00013 0.00013 5e-05 0.00013 0.00013 0.00013 9e-05 9e-05 
9e-05 9e-05 0.00013 0.00013 0.00013 0.00013 7e-05 7e-05 7e-05 
9e-05 9e-05 0.00015 0.00011 0.00011 0.00011 0.00011 5e-05 5e-05 
5e-05 5e-05 9e-05 9e-05 9e-05 0.00013 0.00013 9e-05 9e-05 
9e-05 9e-05 5e-05 5e-05 5e-05 5e-05 5e-05 5e-05 0.00015 
0.00015 0.00015 0.00015 0.00015 0.00015 0.00015 0.00015 0.00015 0.00013 
0.00013 0.00013 9e-05 0.00011 0.00011 9e-05 9e-05 0.00013 0.00013 
0.00015 0.00015 9e-05 9e-05 0.00013 0.00013 5e-05 5e-05 5e-05 
5e-05 5e-05 5e-05 5e-05 5e-05 5e-05 5e-05 5e-05 5e-05 
5e-05 0.00015 0.00015 0.00015 0.00013 0.00013 0.00013 0.00013 0.00013 
0.00013 7e-05 7e-05 7e-05 0.00013 0.00013 0.00013 0.00013 0.00015 
0.00011 0.00011 0.00011 0.00015 9e-05 0.00013 0.00013 0.00013 0.00013 
0.00013 0.00011 0.00011 0.00011 7e-05 7e-05 7e-05 7e-05 7e-05 
7e-05 0.00015 0.00015 5e-05 5e-05 5e-05 5e-05 5e-05 0.00013 
0.00013 0.00013 0.00013 0.00013 0.00015 0.00015 0.00013 0.00013 0.00015 
0.00013 0.00013 0.00013 0.00013 0.00013 0.00015 0.00015 0.00015 0.00013 
0.00015 0.00015 0.00015 0.00015 0.00015 0.00015 0.00015 0.00011 0.00013 
0.00013 0.00013 5e-05 5e-05 5e-05 5e-05 0.00015 0.00013 0.00011 
5e-05 5e-05 5e-05 5e-05 5e-05 0.00015 0.00013 0.00013 0.00015 
0.00015 7e-05 9e-05 9e-05 7e-05 7e-05 0.00013 0.00013 7e-05 
7e-05 7e-05 7e-05 7e-05 0.00011 5e-05 5e-05 5e-05 0.00013 
0.00015 0.00015 0.00015 0.00015 9e-05 9e-05 0.00015 5e-05 5e-05 
5e-05 5e-05 5e-05 5e-05 5e-05 5e-05 5e-05 0.00015 0.00011 
0.00013 9e-05 9e-05 9e-05 9e-05 0.00013 0.00013 7e-05 9e-05 
9e-05 0.00011 0.00011 0.00011 7e-05 7e-05 7e-05 7e-05 7e-05 
0.00013 0.00013 0.00013 9e-05 9e-05 9e-05 9e-05 9e-05 9e-05 
9e-05 0.00011 0.00011 0.00015 9e-05 9e-05 0.00013 0.00013 0.00011 
0.00011 0.00011 0.00015 9e-05 9e-05 9e-05 0.00013 0.00013 0.00013 
0.00013 0.00013 0.00013 5e-05 5e-05 5e-05 5e-05 5e-05 5e-05 
0.00013 9e-05 9e-05 9e-05 5e-05 5e-05 5e-05 5e-05 5e-05 
5e-05 5e-05 5e-05 5e-05 0.00013 0.00011 0.00011 0.00011 7e-05 
7e-05 7e-05 7e-05 7e-05 0.00011 0.00011 0.00011 0.00013 0.00013 
0.00013 0.00013 0.00013 5e-05 5e-05 5e-05 5e-05 5e-05 5e-05 
5e-05 5e-05 5e-05 5e-05 5e-05 7e-05 7e-05 7e-05 7e-05 
5e-05 5e-05 0.00013 0.00013 0.00013 9e-05 0.00015 0.00015 0.00015 
0.00015 0.00011 5e-05 5e-05 5e-05 5e-05 5e-05 0.00013 0.00013 
0.00013 7e-05 0.00015 0.00015 0.00013 0.00013 0.00013 0.00011 0.00011 
0.00013 0.00013 0.00013 0.00013 0.00013 0.00013 0.00015 9e-05 9e-05 
9e-05 0.00015 0.00015 0.00013 0.00013 0.00013 9e-05 9e-05 9e-05 
7e-05 7e-05 5e-05 5e-05 5e-05 5e-05 0.00013 7e-05 7e-05 
7e-05 7e-05 5e-05 5e-05 0.00011 0.00013 0.00013 0.00013 7e-05 
7e-05 0.00013 0.00013 0.00013 0.00015 0.00015 0.00015 0.00011 0.00013 
0.00011 0.00011 0.00011 0.00011 0.00013 0.00011 0.00011 0.00011 9e-05 
9e-05 9e-05 5e-05 5e-05 5e-05 5e-05 5e-05 5e-05 0.00011 
0.00011 0.00011 0.00011 0.00011 0.00011 7e-05 7e-05 7e-05 7e-05 
7e-05 7e-05 7e-05 7e-05 7e-05 5e-05 5e-05 5e-05 5e-05 
5e-05 5e-05 5e-05 5e-05 5e-05 5e-05 5e-05 5e-05 5e-05 
7e-05 7e-05 7e-05 0.00015 0.00015 0.00011 0.00011 0.00011 0.00011 
0.00011 0.00011 0.00015 0.00015 0.00015 0.00015 0.00013 9e-05 9e-05 
9e-05 9e-05 0.00015 0.00013 0.00013 0.00013 0.00013 5e-05 5e-05 
5e-05 5e-05 0.00013 0.00013 0.00015 0.00011 0.00015 5e-05 5e-05 
5e-05 5e-05 5e-05 5e-05 9e-05 0.00013 0.00013 9e-05 9e-05 
9e-05 9e-05 0.00013 0.00013 0.00013 7e-05 7e-05 7e-05 7e-05 
0.00011 0.00011 0.00013 0.00013 9e-05 0.00011 9e-05 7e-05 7e-05 
0.00013 5e-05 5e-05 5e-05 5e-05 5e-05 5e-05 5e-05 5e-05 
5e-05 5e-05 5e-05 0.00011 9e-05 0.00013 0.00013 0.00013 0.00013 
0.00013 0.00013 0.00013 0.00013 0.00013 0.00013 0.00013 0.00015 0.00013 
0.00013 5e-05 5e-05 5e-05 0.00011 0.00011 0.00011 0.00011 0.00015 
0.00015 0.00015 0.00013 0.00013 0.00013 0.00013 0.00013 5e-05 5e-05 
5e-05 0.00015 9e-05 0.00011 7e-05 7e-05 7e-05 0.00013 0.00013 
7e-05 0.00015 0.00015 7e-05 7e-05 7e-05 7e-05 7e-05 5e-05 
5e-05 5e-05 5e-05 7e-05 7e-05 7e-05 0.00011 0.00011 0.00011 
0.00011 0.00011 0.00011 0.00013 0.00013 0.00011 0.00011 7e-05 7e-05 
7e-05 9e-05 9e-05 9e-05 9e-05 9e-05 9e-05 7e-05 7e-05 
9e-05 9e-05 9e-05 0.00015 0.00015 0.00013 0.00013 0.00013 9e-05 
0.00013 0.00011 7e-05 7e-05 7e-05 7e-05 7e-05 7e-05 7e-05 
0.00013 0.00013 9e-05 9e-05 0.00013 7e-05 7e-05 7e-05 7e-05 
0.00013 0.00013 0.00013 0.00013 7e-05 7e-05 7e-05 7e-05 7e-05 
9e-05 9e-05 9e-05 0.00013 0.00015 0.00015 0.00015 0.00011 0.00011 
0.00015 5e-05 5e-05 5e-05 5e-05 5e-05 0.00013 0.00013 7e-05 
0.00011 0.00013 0.00013 0.00013 0.00011 0.00011 0.00013 0.00013 0.00013 
7e-05 7e-05 7e-05 7e-05 0.00015 0.00015 5e-05 5e-05 5e-05 
5e-05 5e-05 7e-05 0.00015 5e-05 5e-05 0.00015 0.00013 0.00013 
0.00013 0.00013 0.00011 9e-05 9e-05 9e-05 0.00015 0.00015 0.00015 
0.00013 0.00015 0.00015 5e-05 5e-05 5e-05 5e-05 5e-05 5e-05 
5e-05 5e-05 0.00011 9e-05 7e-05 7e-05 0.00013 0.00013 0.00013 
0.00011 0.00011 0.00011 0.00011 0.00015 0.00013 0.00013 0.00013 5e-05 
5e-05 0.00011 9e-05 9e-05 9e-05 9e-05 0.00013 0.00013 0.00015 
0.00015 0.00015 0.00015 0.00015 0.00015 0.00015 0.00011 0.00011 0.00011 
0.00011 0.00011 0.00013 0.00013 0.00011 0.00011 0.00011 0.00011 5e-05 
0.00015 0.00015 0.00011 0.00011 0.00011 0.00015 0.00013 0.00015 0.00015 
0.00015 0.00013 5e-05 5e-05 5e-05 5e-05 5e-05 5e-05 5e-05 
9e-05 9e-05 9e-05 0.00011 0.00011 0.00013 9e-05 9e-05 5e-05 
5e-05 5e-05 0.00013 0.00013 9e-05 9e-05 0.00015 0.00015 5e-05 
5e-05 9e-05 9e-05 0.00013 0.00013 0.00013 9e-05 9e-05 9e-05 
0.00013 0.00013 0.00013 0.00015 0.00011 0.00011 0.00015 0.00015 5e-05 
5e-05 5e-05 5e-05 0.00011 0.00015 0.00011 0.00011 0.00011 0.00015 
0.00015 0.00013 0.00013 0.00015 0.00015 7e-05 7e-05 0.00013 0.00013 
5e-05 5e-05 5e-05 5e-05 0.00013 0.00015 0.00015 0.00015 0.00015 
0.00015 0.00013 0.00013 0.00013 0.00013 0.00013 0.00011 9e-05 9e-05 
9e-05 0.00011 0.00011 0.00011 0.00011 7e-05 7e-05 7e-05 7e-05 
9e-05 9e-05 9e-05 0.00013 0.00013 0.00015 7e-05 7e-05 5e-05 
5e-05 7e-05 0.00015 5e-05 5e-05 5e-05 5e-05 5e-05 5e-05 
9e-05 0.00011 0.00011 0.00011 0.00015 0.00011 0.00011 0.00015 7e-05 
7e-05 7e-05 7e-05 0.00015 0.00015 7e-05 7e-05 7e-05 5e-05 
5e-05 5e-05 5e-05 5e-05 5e-05 0.00015 0.00015 0.00015 9e-05 
0.00015 0.00015 0.00015 0.00015 0.00013 0.00011 0.00011 0.00011 9e-05 
7e-05 7e-05 7e-05 7e-05 7e-05 0.00015 5e-05 5e-05 5e-05 
5e-05 5e-05 5e-05 0.00011 0.00011 0.00011 0.00011 5e-05 5e-05 
5e-05 0.00011 0.00011 0.00011 9e-05 9e-05 9e-05 9e-05 0.00011 
0.00011 9e-05 9e-05 9e-05 9e-05 0.00011 0.00013 0.00011 0.00011 
0.00011 0.00011 9e-05 9e-05 0.00013 0.00015 0.00015 0.00013 0.00013 
7e-05 7e-05 7e-05 0.00011 0.00011 0.00011 0.00011 0.00011 0.00011 
0.00015 0.00015 0.00015 0.00013 0.00013 0.00013 5e-05 5e-05 5e-05 
5e-05 5e-05 5e-05 5e-05 5e-05 0.00013 0.00013 0.00013 0.00013 
0.00013 0.00011 0.00011 0.00013 0.00013 5e-05 5e-05 5e-05 5e-05 
5e-05 5e-05 0.00013 0.00013 0.00013 0.00015 0.00015 0.00013 0.00013 
0.00013 5e-05 5e-05 5e-05 5e-05 5e-05 5e-05 7e-05 9e-05 
9e-05 0.00013 0.00013 0.00013 0.00013 0.00013 0.00013 0.00013 0.00013 
0.00013 0.00013 0.00013 0.00015 0.00015 7e-05 0.00011 0.00015 0.00015 
9e-05 9e-05 9e-05 9e-05 9e-05 0.00015 0.00013 0.00013 0.00013 
0.00013 9e-05 9e-05 0.00015 0.00015 5e-05 5e-05 5e-05 0.00015 
7e-05 0.00013 0.00013 0.00013 0.00015 0.00015 0.00011 9e-05 9e-05 
9e-05 9e-05 9e-05 0.00013 0.00013 0.00013 5e-05 5e-05 7e-05 
7e-05 7e-05 7e-05 7e-05 7e-05 7e-05 7e-05 7e-05 5e-05 
5e-05 5e-05 5e-05 5e-05 5e-05 5e-05 5e-05 5e-05 5e-05 
0.00015 0.00015 0.00011 5e-05 5e-05 5e-05 5e-05 7e-05 9e-05 
9e-05 9e-05 0.00013 5e-05 5e-05 5e-05 5e-05 5e-05 5e-05 
5e-05 5e-05 5e-05 5e-05 5e-05 5e-05 5e-05 5e-05 0.00015 
0.00013 0.00013 0.00013 0.00013 9e-05 9e-05 9e-05 0.00013 0.00013 
0.00013 0.00011 0.00011 0.00011 9e-05 9e-05 0.00013 0.00013 0.00013 
0.00013 0.00015 0.00013 9e-05 9e-05 9e-05 9e-05 0.00013 9e-05 
0.00013 0.00013 0.00013 0.00013 0.00013 0.00013 0.00013 0.00011 0.00011 
0.00011 0.00011 0.00011 0.00013 0.00013 0.00013 0.00013 9e-05 5e-05 
5e-05 5e-05 5e-05 5e-05 5e-05 5e-05 5e-05 5e-05 5e-05 
5e-05 0.00015 0.00013 0.00013 0.00013 0.00015 0.00015 5e-05 5e-05 
5e-05 5e-05 5e-05 5e-05 5e-05 5e-05 0.00015 0.00015 0.00011 
0.00011 0.00011 0.00011 0.00013 0.00013 0.00013 9e-05 9e-05 9e-05 
0.00011 0.00011 0.00011 0.00011 0.00011 0.00011 9e-05 9e-05 9e-05 
9e-05 0.00013 0.00013 7e-05 7e-05 7e-05 7e-05 0.00015 0.00015 
0.00015 5e-05 5e-05 5e-05 5e-05 5e-05 5e-05 5e-05 5e-05 
5e-05 5e-05 5e-05 5e-05 5e-05 5e-05 0.00013 0.00013 0.00013 
0.00013 0.00013 7e-05 0.00013 7e-05 7e-05 7e-05 7e-05 0.00011 
0.00011 0.00011 0.00011 0.00013 0.00011 0.00011 0.00011 0.00011 0.00011 
0.00013 0.00013 0.00011 5e-05 5e-05 5e-05 5e-05 5e-05 5e-05 
5e-05 9e-05 9e-05 9e-05 9e-05 5e-05 5e-05 5e-05 5e-05 
9e-05 9e-05 9e-05 9e-05 9e-05 0.00015 0.00015 5e-05 5e-05 
5e-05 5e-05 5e-05 5e-05 5e-05 7e-05 7e-05 7e-05 0.00015 
0.00015 0.00013 0.00013 7e-05 7e-05 7e-05 0.00011 0.00011 9e-05 
9e-05 9e-05 9e-05 0.00011 9e-05 9e-05 9e-05 0.00013 0.00013 
0.00013 0.00015 5e-05 5e-05 5e-05 5e-05 5e-05 5e-05 5e-05 
5e-05 5e-05 5e-05 0.00015 0.00011 0.00013 0.00013 0.00013 9e-05 
9e-05 0.00015 0.00015 0.00015 9e-05 9e-05 9e-05 9e-05 0.00013 
0.00013 0.00013 0.00013 0.00013 0.00011 0.00011 7e-05 7e-05 0.00015 
0.00015 0.00013 0.00015 0.00015 0.00011 0.00011 0.00013 0.00013 0.00011 
0.00011 5e-05 5e-05 9e-05 9e-05 9e-05 9e-05 9e-05 0.00011 
5e-05 5e-05 5e-05 5e-05 5e-05 5e-05 0.00011 0.00011 0.00011 
0.00011 0.00011 0.00015 0.00011 0.00011 7e-05 7e-05 7e-05 7e-05 
0.00015 9e-05 9e-05 0.00011 0.00011 0.00011 0.00011 0.00013 0.00013 
0.00013 7e-05 7e-05 7e-05 7e-05 7e-05 9e-05 9e-05 0.00015 
5e-05 5e-05 5e-05 5e-05 5e-05 5e-05 5e-05 5e-05 5e-05 
0.00013 0.00015 0.00013 0.00015 0.00011 0.00011 5e-05 5e-05 5e-05 
5e-05 0.00011 0.00013 0.00013 0.00015 0.00015 0.00015 0.00015 0.00013 
0.00011 0.00011 9e-05 0.00013 9e-05 9e-05 9e-05 9e-05 9e-05 
9e-05 0.00013 0.00013 7e-05 7e-05 7e-05 0.00013 0.00015 0.00015 
9e-05 9e-05 0.00015 0.00015 0.00011 0.00011 0.00011 0.00011 0.00013 
0.00013 0.00013 0.00011 0.00011 0.00011 9e-05 9e-05 9e-05 9e-05 
0.00015 5e-05 5e-05 5e-05 5e-05 0.00013 0.00013 0.00015 0.00015 
0.00011 0.00011 0.00011 0.00013 0.00015 0.00015 5e-05 5e-05 5e-05 
5e-05 5e-05 9e-05 9e-05 0.00011 0.00015 0.00015 0.00015 0.00015 
0.00013 0.00013 0.00013 0.00015 0.00013 0.00013 0.00015 0.00011 5e-05 
5e-05 5e-05 5e-05 5e-05 0.00011 0.00013 0.00015 0.00015 0.00015 
0.00011 0.00015 7e-05 0.00011 0.00011 0.00011 0.00011 9e-05 9e-05 
0.00011 0.00011 0.00015 0.00015 9e-05 9e-05 9e-05 9e-05 7e-05 
7e-05 7e-05 0.00015 0.00015 0.00011 9e-05 9e-05 0.00015 7e-05 
7e-05 0.00011 5e-05 5e-05 5e-05 5e-05 5e-05 5e-05 5e-05 
5e-05 5e-05 5e-05 5e-05 7e-05 7e-05 7e-05 7e-05 7e-05 
7e-05 5e-05 5e-05 5e-05 5e-05 5e-05 5e-05 5e-05 5e-05 
5e-05 5e-05 5e-05 5e-05 9e-05 9e-05 0.00011 0.00011 0.00011 
0.00011 0.00011 9e-05 0.00015 0.00013 7e-05 9e-05 9e-05 9e-05 
9e-05 9e-05 0.00013 9e-05 0.00013 0.00013 0.00013 0.00013 0.00013 
0.00013 9e-05 9e-05 9e-05 0.00015 0.00015 5e-05 5e-05 5e-05 
5e-05 5e-05 5e-05 0.00011 0.00011 0.00011 0.00015 0.00015 0.00013 
0.00013 0.00015 0.00015 0.00013 0.00013 5e-05 5e-05 5e-05 5e-05 
5e-05 5e-05 5e-05 5e-05 0.00013 7e-05 7e-05 7e-05 7e-05 
7e-05 7e-05 0.00011 0.00011 0.00011 0.00011 0.00015 0.00013 0.00011 
7e-05 7e-05 7e-05 5e-05 5e-05 5e-05 5e-05 5e-05 5e-05 
5e-05 5e-05 5e-05 5e-05 5e-05 5e-05 0.00013 0.00013 0.00013 
0.00015 0.00015 0.00011 0.00011 0.00011 0.00011 0.00011 0.00015 0.00013 
0.00013 0.00013 0.00011 5e-05 5e-05 5e-05 5e-05 5e-05 5e-05 
5e-05 5e-05 5e-05 5e-05 5e-05 5e-05 0.00013 0.00013 0.00013 
0.00013 0.00011 5e-05 5e-05 5e-05 5e-05 5e-05 5e-05 5e-05 
5e-05 5e-05 5e-05 5e-05 7e-05 5e-05 5e-05 5e-05 5e-05 
5e-05 5e-05 5e-05 5e-05 0.00013 0.00013 0.00013 0.00013 0.00013 
5e-05 5e-05 9e-05 0.00013 0.00013 0.00013 0.00013 0.00015 0.00015 
5e-05 5e-05 5e-05 5e-05 5e-05 9e-05 9e-05 9e-05 0.00015 
0.00015 7e-05 7e-05 7e-05 0.00011 7e-05 5e-05 5e-05 5e-05 
0.00011 0.00011 0.00011 0.00011 0.00015 0.00011 9e-05 9e-05 9e-05 
9e-05 7e-05 7e-05 7e-05 7e-05 7e-05 7e-05 0.00013 0.00015 
0.00015 5e-05 5e-05 5e-05 9e-05 9e-05 9e-05 0.00011 0.00015 
7e-05 7e-05 7e-05 9e-05 9e-05 5e-05 5e-05 5e-05 5e-05 
5e-05 0.00015 0.00011 0.00011 9e-05 9e-05 0.00011 0.00011 0.00011 
0.00013 0.00013 9e-05 9e-05 9e-05 0.00013 0.00013 0.00015 0.00015 
0.00013 0.00013 0.00013 0.00013 0.00013 0.00013 0.00013 0.00013 0.00013 
0.00013 9e-05 9e-05 9e-05 0.00015 0.00013 0.00013 0.00013 0.00013 
0.00013 0.00013 0.00015 0.00013 9e-05 9e-05 9e-05 9e-05 0.00013 
0.00015 0.00015 0.00013 0.00013 0.00013 0.00013 9e-05 0.00013 0.00013 
0.00013 0.00013 0.00015 0.00015 0.00015 0.00015 9e-05 9e-05 0.00013 
5e-05 5e-05 5e-05 5e-05 5e-05 0.00013 0.00013 0.00013 0.00013 
0.00015 0.00015 0.00011 0.00011 0.00015 0.00015 0.00015 0.00015 9e-05 
9e-05 9e-05 7e-05 7e-05 7e-05 7e-05 0.00013 0.00013 0.00013 
0.00015 0.00015 9e-05 9e-05 9e-05 9e-05 9e-05 9e-05 0.00013 
7e-05 9e-05 0.00015 5e-05 5e-05 5e-05 5e-05 5e-05 5e-05 
5e-05 5e-05 5e-05 5e-05 5e-05 0.00011 0.00011 7e-05 7e-05 
0.00013 0.00013 0.00013 0.00013 7e-05 0.00011 0.00011 7e-05 0.00013 
0.00013 0.00011 0.00011 0.00011 0.00011 0.00015 0.00015 0.00015 7e-05 
7e-05 9e-05 9e-05 0.00013 9e-05 0.00011 0.00011 0.00013 9e-05 
9e-05 9e-05 5e-05 0.00013 5e-05 5e-05 5e-05 5e-05 5e-05 
0.00011 0.00011 0.00011 0.00011 0.00011 5e-05 5e-05 5e-05 5e-05 
5e-05 7e-05 7e-05 7e-05 7e-05 7e-05 0.00015 0.00015 9e-05 
9e-05 9e-05 0.00015 0.00015 5e-05 7e-05 7e-05 7e-05 7e-05 
7e-05 0.00011 0.00011 0.00013 5e-05 5e-05 5e-05 5e-05 0.00015 
0.00011 0.00013 0.00013 0.00013 0.00013 0.00013 0.00013 5e-05 5e-05 
5e-05 9e-05 9e-05 9e-05 5e-05 5e-05 5e-05 5e-05 5e-05 
5e-05 5e-05 5e-05 5e-05 5e-05 9e-05 9e-05 9e-05 5e-05 
5e-05 5e-05 5e-05 0.00013 0.00013 5e-05 5e-05 5e-05 5e-05 
5e-05 5e-05 0.00011 9e-05 9e-05 9e-05 0.00015 0.00015 0.00015 
0.00013 0.00013 0.00013 0.00013 0.00011 0.00011 0.00013 0.00011 0.00011 
0.00011 0.00011 0.00013 0.00013 7e-05 0.00015 5e-05 0.00011 9e-05 
9e-05 0.00013 9e-05 0.00015 0.00015 5e-05 5e-05 0.00011 0.00015 
0.00015 0.00015 7e-05 7e-05 7e-05 0.00015 0.00013 0.00013 0.00011 
9e-05 0.00015 0.00015 0.00015 0.00015 0.00011 0.00011 0.00011 9e-05 
9e-05 0.00011 0.00011 0.00011 0.00013 0.00011 0.00013 5e-05 5e-05 
5e-05 5e-05 5e-05 5e-05 5e-05 5e-05 7e-05 7e-05 0.00011 
7e-05 7e-05 9e-05 9e-05 9e-05 9e-05 0.00011 0.00011 0.00011 
0.00013 0.00013 0.00013 9e-05 5e-05 5e-05 5e-05 5e-05 5e-05 
5e-05 5e-05 5e-05 0.00011 0.00013 0.00013 0.00015 0.00015 0.00015 
7e-05 7e-05 7e-05 7e-05 7e-05 7e-05 7e-05 7e-05 7e-05 
0.00013 0.00013 0.00015 0.00013 0.00013 5e-05 5e-05 5e-05 5e-05 
5e-05 5e-05 5e-05 5e-05 5e-05 5e-05 9e-05 0.00011 0.00011 
0.00013 0.00013 0.00013 0.00013 0.00015 0.00011 0.00011 0.00011 5e-05 
5e-05 5e-05 5e-05 5e-05 5e-05 5e-05 5e-05 5e-05 9e-05 