# vtk DataFile Version 4.1
vtk output
ASCII
DATASET POLYDATA
FIELD FieldData 2
PORINGUMAS 1 1 double
0.55576 
UNIQUE_RADIUS 1 1 double
0.003 
POINTS 76420 float
0 0 0 0.006 0 0 0.003 0.00519615 0 
0.003 0.00173205 0.00489898 0.003 -0.00404145 0.00326599 0.008 0.0046188 0.00326599 
0.008 -0.0015396 0.00544331 -0.002 -0.0015396 0.00544331 0.00333333 -0.002566 0.00907218 
0.00833333 -0.00545275 0.000907218 -0.002 0.0046188 0.00326599 0.00333333 0.007698 0.00544331 
0.00655556 0.00994325 0.000907218 0.00655556 0.00416975 0.00907218 0.0118421 0.000455803 0.00128921 
0.000592593 0.0106061 0.0009677 0.00892593 0.00964389 0.00641101 -0.00110526 0.00319062 0.00902444 
-0.00218414 0.0088869 0.00747899 0.00398765 0.0136354 0.00487882 0.00492982 0.00965289 0.0108866 
0.00778054 0.0147188 0.00939993 0.0105208 0.00770547 0.0118607 0.00963743 0.0145992 0.00310364 
0.012321 0.00843929 0.00161283 0.0131111 -0.00450811 0.00441157 0.0122244 0.00245174 0.00693457 
-0.00197378 0.0143129 0.00492669 0.00185989 0.0147821 0.0103704 0.00644037 0.019076 0.00549884 
0.00688889 -0.00735587 0.00641101 0.0133203 0.0124143 0.00941336 -0.00404146 0.0137099 0.0105268 
0.000587474 0.0194142 0.00677525 0.00564409 0.0139997 0.0149604 0.00510734 0.0197388 0.0113112 
-0.00533342 0.018644 0.00736684 0.00138093 0.0175316 0.00113378 -0.000748501 0.0196959 0.0126178 
0.00409264 0.0242342 0.00746903 0.0123741 0.0179381 0.00727043 -0.000284677 0.00759021 0.0130207 
0.00670328 0.00828565 0.0164531 0.00414815 -0.00969378 0.00161283 0.0112424 -0.0101065 0.00333197 
-0.00516876 0.00962649 0.0023268 -0.000219305 0.0129605 0.0156957 0.00330795 0.0191348 0.0170031 
0.0101479 0.0178329 0.0139494 0.0112742 0.0121251 0.0158481 0.003968 0.0229237 0.00161521 
0.010043 0.0234642 0.00743936 0.0110877 0.0202967 0.0019055 -0.00282606 0.0238865 0.00885985 
-0.00312666 0.0212688 0.00244332 -0.00648199 0.002303 0.00651388 -0.00218414 -0.00221119 0.0114028 
-0.000315789 -0.00698898 0.0073055 -0.00233333 -0.00545275 0.000907218 -0.00771448 0.0237814 0.00538246 
-0.00656775 0.0211565 0.0126738 0.0015018 0.0252555 0.0127836 0.00912172 0.0259632 0.00206293 
0.0153921 0.0161465 0.00240402 0.0155424 0.0225951 0.00520296 -0.00702969 -0.00345979 0.00809192 
-0.00593124 0.00234739 0.0124884 -0.0075234 0.0042832 0.000946624 -0.00811872 0.00802181 0.00729899 
0.00322283 0.0142214 0.0204456 0.00883505 0.0161593 0.0195597 0.0039281 0.0286491 0.00340928 
0.0133531 0.0281588 0.00570638 -0.00183348 0.0173101 0.0195003 0.00149094 0.0085707 0.0194112 
0.00498494 0.0194717 0.0227541 0.0078714 0.0106878 0.0218257 -0.00854766 0.0187012 0.00230073 
-0.00297984 0.027111 0.00380225 -0.0119914 0.00408889 0.00494649 -0.00624024 0.00831843 0.0129896 
-0.00565573 -0.00838487 0.00495251 -0.0045432 -0.00772714 0.0114988 0.00147542 -0.00668115 0.0130236 
0.0148659 0.0250737 0.0106251 0.0148608 0.0260047 0.000313134 -0.011072 0.000560159 0.00996275 
-0.00363695 0.00507552 0.0173147 0.00749724 0.025083 0.0126257 0.0077333 0.0289694 0.00803723 
-0.0112704 0.0194823 0.00759003 -0.00709283 -0.00191804 0.00229373 0.00838906 0.00282532 0.0146247 
0.0123252 0.00643648 0.0174405 0.0156935 0.0069255 0.0089222 -0.00958295 0.00483206 0.0165493 
-0.00377953 -0.000916494 0.01704 0.00205162 0.003331 0.0165422 -0.00991777 0.0125341 0.0108208 
-0.00618521 0.0134344 0.016124 -0.0110325 0.0140214 0.00511589 -0.0114679 0.0177575 0.0133334 
-0.0130216 0.0226659 0.00281531 -0.0108153 0.0247496 0.010427 0.0134658 0.0128123 0.0213911 
0.0157273 0.0156273 0.0138724 0.0164328 0.00948067 0.0143004 -0.000323946 -0.0119216 0.0107215 
-0.00284425 -0.00684138 0.0171847 0.00734509 -0.00576803 0.0121791 -0.0121263 0.0126416 0.0163985 
-0.00791702 0.0188482 0.0180452 0.0163077 0.00413636 0.002874 0.0140469 0.00252238 0.0126506 
0.0180563 0.00149338 0.00796881 0.0192772 0.011702 0.00950711 0.00777849 0.00397191 0.0204824 
0.0126656 0.000485107 0.0181225 0.0125222 0.00723226 0.0233842 0.0178975 0.00427735 0.0169042 
-0.00419498 -0.0123697 0.0152838 -0.00809695 -0.00467973 0.0152517 0.00177322 -0.00305948 0.017798 
-0.0121257 0.000522859 0.000123073 -0.0111047 0.00904134 0.00167739 -0.00117504 -0.0123723 0.00479929 
0.0181052 -0.00158783 0.00282063 0.0144635 -0.0028531 0.010018 0.0209061 0.00639229 0.00599908 
-0.0137761 0.0178537 0.0188708 -0.00904575 0.0139826 0.0213696 -0.0117209 0.0230678 0.0161149 
-0.00339155 0.022751 0.017508 0.0118178 0.031158 0.000741775 0.01913 0.0273222 0.00431783 
0.00672691 -0.0133053 0.00565099 0.0122266 -0.00832203 0.00897527 0.0181728 0.00974478 0.00184097 
-0.0120624 -0.00529919 0.0107917 -0.0123201 -0.000446246 0.0157446 -0.00665738 -0.00431051 0.0210648 
-0.00577923 -0.0131765 0.00856157 0.00166082 -0.0116529 0.0163773 0.0175918 -0.00150581 0.0153353 
0.0162487 0.00262713 0.0224322 -0.00975292 0.000829059 0.0210156 -0.0144304 0.00447187 0.0130319 
-0.00346111 0.0117947 0.0212123 -0.0059342 0.0185527 0.0237004 -0.000360083 0.0221959 0.022656 
0.000254031 0.0166079 0.0250815 0.00149666 -0.00802553 0.0211539 -0.000376983 0.00109684 0.0215532 
0.00462893 0.0249195 0.0178932 0.00465642 0.0303547 0.0129984 0.0114758 0.0295739 0.0126879 
0.0128011 -0.00633986 0.0146092 0.0178039 -0.00697705 0.00721903 0.0104348 0.0264187 0.017684 
-0.0109925 0.0221506 0.0219994 -0.0158084 0.0175316 0.00418393 -0.0160405 0.0231005 0.00798222 
-0.012848 0.0171554 0.0247573 -0.0164763 0.0231353 0.0197728 -0.00782456 0.026417 0.0192135 
0.0215825 0.00509553 0.00018007 0.022949 0.0118973 0.00476582 -0.0165415 0.017524 0.010139 
0.008433 0.0153995 0.0254978 0.0139381 0.0191035 0.0184238 0.00949936 -0.0112178 0.0134671 
0.0073863 -0.00195055 0.0196046 0.00420077 0.00672364 0.0244356 0.0109314 0.00169195 0.0250498 
0.0182018 0.009388 0.0200329 0.0210886 0.0131945 0.015029 -0.00658003 -0.0138493 0.00265344 
-0.0014113 -0.0172779 0.008246 -0.0123008 -0.00296832 0.00526809 -0.0046346 0.013592 0.0268152 
-0.0026045 0.0209489 0.0280789 0.00367575 0.0120937 0.0270599 0.0045685 0.0186979 0.0286894 
0.000819716 0.0293884 0.0084878 0.000504037 0.0292175 0.0171775 0.00628897 0.0306188 0.018766 
0.00846535 0.0343348 0.0106212 -0.0126015 -0.00439617 0.0202522 -0.0147625 0.00368069 0.0193505 
-0.00524735 7.77471e-05 0.024906 -0.0073044 0.00623144 0.0219206 -0.0176203 0.0148334 0.0153922 
-0.0152161 0.0126775 0.0215416 -0.0165937 -0.00167844 0.00925645 -0.0102006 -0.0069545 0.00130583 
0.0183709 0.0177614 0.00735566 0.0207484 0.0148524 3.02432e-05 -0.0172214 0.0221478 0.0139018 
-0.0135146 0.0282218 0.0186085 -0.00301431 0.0079113 0.0257641 -0.00661002 -0.0102686 0.0203585 
-0.0156626 0.00536306 0.000374914 -0.0162491 0.0115983 0.0034086 0.00283918 -0.015549 0.00166958 
-0.0162326 -0.00719079 0.00691474 -0.0169792 0.000421561 0.00364919 -0.0139684 0.00844902 0.00856322 
0.0123308 -0.0141649 0.00761511 -0.0203773 0.0145164 0.00664023 -0.0190163 0.0224145 0.00281753 
0.0220383 0.0073844 0.0138711 -0.00403726 0.0273617 0.0137232 0.00223249 0.0276068 0.0226927 
-0.000603438 0.0332384 0.0128641 0.00639097 -0.00816812 0.0175947 0.00768701 -0.016267 0.01078 
0.0153309 -0.0121452 0.0124026 0.0120183 -0.016464 0.0149274 0.0134125 -0.0112413 0.0180154 
0.0181943 -0.0129643 0.00719398 0.0185684 -0.00715188 0.0131676 0.0152682 0.00458779 0.0280174 
0.0128818 0.0117865 0.0272738 0.00616359 0.0339563 0.00509324 -0.015733 0.022336 0.0256727 
-0.00952503 0.0211678 0.0277336 -0.0110718 0.027781 0.024071 0.0152106 -0.00466857 0.0198438 
0.0211061 0.000183765 0.0198954 -0.0051337 0.030134 0.00851629 -0.000577297 0.032606 0.00361997 
-0.00932319 0.0300498 0.0128106 -0.00649681 0.031896 0.00294517 -0.00312139 0.0357664 0.00804026 
0.0157766 -0.00129435 0.0269487 0.00956584 0.00638087 0.0285354 0.020059 0.00651182 0.0249602 
-0.000373916 -0.0168521 0.0141403 0.00547184 0.0356775 0.0156448 0.0140669 0.0332821 0.00874645 
-0.0106115 0.0290981 0.00629795 -0.0089394 0.0347376 0.00908538 -0.0114873 -0.00931198 0.0169975 
-0.0101111 -0.00777129 0.0245425 0.0173564 -0.00732892 0.00124609 0.0221314 -0.00282281 0.00709436 
0.0141149 0.0173171 0.0253008 0.0183059 0.0128436 0.0249368 0.00500795 0.000786276 0.0247457 
-0.0109877 -0.0110554 0.00561428 -0.0069245 -0.01861 0.00628894 -0.00772928 0.00475886 0.0277215 
-0.00043764 0.00272339 0.0273282 -0.000962584 0.0107655 0.0306267 -0.017625 -0.00647729 0.0127072 
-0.0138647 -0.0110214 0.0108795 -0.0197394 -0.0112023 0.00967341 -0.0169938 -0.0114666 0.0159795 
-0.000238954 -0.00308835 0.0258503 -0.0158623 0.0276392 0.0119025 -0.0047848 0.000583036 0.0308667 
0.00329457 -0.000980951 0.0302176 0.00318404 0.00643832 0.030342 0.00447845 0.0116642 0.0329904 
0.018264 0.00944162 0.029879 0.0230491 0.00585965 0.0197994 0.0100462 -0.00670332 0.0221217 
0.0190007 -0.00919913 0.0187909 0.0103459 -0.00381035 0.0273697 -0.0149065 -0.000227726 0.0239006 
-0.0160238 0.0276938 0.00412195 -0.00955786 0.0271031 0.000738276 -0.0145866 0.0327141 0.00896674 
-0.0118579 0.0344331 0.00385184 -0.0215719 -0.00493183 0.00846054 -0.0182488 -0.00095901 0.0149786 
-0.0180895 0.00405209 0.00829533 0.0180824 0.0209514 2.16223e-05 0.0202893 0.0232566 0.00881256 
0.0228226 -0.00428826 0.0162823 -0.00389273 -0.00778769 0.0250979 -0.00146805 -0.00436538 0.0315826 
-0.0118427 -0.0166044 0.00349815 -0.0170142 -0.0159941 0.0120423 -0.020378 0.00452981 0.0138211 
0.0245027 0.00211536 0.0153421 0.0243325 0.00232812 0.0244771 0.0163222 -0.017701 0.0103654 
0.0213239 -0.0124077 0.0122828 0.0221113 -0.0096893 0.0040425 -0.0120687 -0.0180293 0.00932212 
-0.00750711 -0.0193152 0.000359078 0.00125076 -0.00843999 0.0281176 -0.0069842 -0.00476175 0.0292556 
-0.000257792 0.000549405 0.0348044 0.0236875 0.0118081 0.0202562 0.00585885 -0.0101563 0.0246797 
0.0150171 -0.00705768 0.0254631 -0.0221792 -0.0140226 0.0143738 -0.0122283 -0.0150862 0.0155453 
-0.0180964 -0.00622509 0.0186833 -0.0116037 0.0114596 0.026175 -0.0128208 -0.00385956 0.0281971 
-0.00738155 -0.0107424 0.0289835 -0.00626633 -0.00344035 0.035064 -0.00160424 -0.0153322 0.0198127 
[...]
POINT_DATA 76420
SCALARS RADIUS double
LOOKUP_TABLE default
0.003 0.003 0.003 0.003 0.003 0.003 0.003 0.003 0.003 
0.003 0.003 0.003 0.003 0.003 0.003 0.003 0.003 0.003 
0.003 0.003 0.003 0.003 0.003 0.003 0.003 0.003 0.003 
0.003 0.003 0.003 0.003 0.003 0.003 0.003 0.003 0.003 
0.003 0.003 0.003 0.003 0.003 0.003 0.003 0.003 0.003 
0.003 0.003 0.003 0.003 0.003 0.003 0.003 0.003 0.003 
0.003 0.003 0.003 0.003 0.003 0.003 0.003 0.003 0.003 
0.003 0.003 0.003 0.003 0.003 0.003 0.003 0.003 0.003 
0.003 0.003 0.003 0.003 0.003 0.003 0.003 0.003 0.003 
0.003 0.003 0.003 0.003 0.003 0.003 0.003 0.003 0.003 
0.003 0.003 0.003 0.003 0.003 0.003 0.003 0.003 0.003 
0.003 0.003 0.003 0.003 0.003 0.003 0.003 0.003 0.003 
0.003 0.003 0.003 0.003 0.003 0.003 0.003 0.003 0.003 
0.003 0.003 0.003 0.003 0.003 0.003 0.003 0.003 0.003 
0.003 0.003 0.003 0.003 0.003 0.003 0.003 0.003 0.003 
0.003 0.003 0.003 0.003 0.003 0.003 0.003 0.003 0.003 
0.003 0.003 0.003 0.003 0.003 0.003 0.003 0.003 0.003 
0.003 0.003 0.003 0.003 0.003 0.003 0.003 0.003 0.003 
0.003 0.003 0.003 0.003 0.003 0.003 0.003 0.003 0.003 
0.003 0.003 0.003 0.003 0.003 0.003 0.003 0.003 0.003 
0.003 0.003 0.003 0.003 0.003 0.003 0.003 0.003 0.003 
0.003 0.003 0.003 0.003 0.003 0.003 0.003 0.003 0.003 
0.003 0.003 0.003 0.003 0.003 0.003 0.003 0.003 0.003 
0.003 0.003 0.003 0.003 0.003 0.003 0.003 0.003 0.003 
0.003 0.003 0.003 0.003 0.003 0.003 0.003 0.003 0.003 
0.003 0.003 0.003 0.003 0.003 0.003 0.003 0.003 0.003 
0.003 0.003 0.003 0.003 0.003 0.003 0.003 0.003 0.003 
0.003 0.003 0.003 0.003 0.003 0.003 0.003 0.003 0.003 
0.003 0.003 0.003 0.003 0.003 0.003 0.003 0.003 0.003 
0.003 0.003 0.003 0.003 0.003 0.003 0.003 0.003 0.003 
0.003 0.003 0.003 0.003 0.003 0.003 0.003 0.003 0.003 
0.003 0.003 0.003 0.003 0.003 0.003 0.003 0.003 0.003 
0.003 0.003 0.003 0.003 0.003 0.003 0.003 0.003 0.003 
0.003 0.003 0.003 0.003 0.003 0.003 0.003 0.003 0.003 
0.003 0.003 0.003 0.003 0.003 0.003 0.003 0.003 0.003 
0.003 0.003 0.003 0.003 0.003 0.003 0.003 0.003 0.003 
0.003 0.003 0.003 0.003 0.003 0.003 0.003 0.003 0.003 
0.003 0.003 0.003 0.003 0.003 0.003 0.003 0.003 0.003 
0.003 0.003 0.003 0.003 0.003 0.003 0.003 0.003 0.003 
0.003 0.003 0.003 0.003 0.003 0.003 0.003 0.003 0.003 
0.003 0.003 0.003 0.003 0.003 0.003 0.003 0.003 0.003 
0.003 0.003 0.003 0.003 0.003 0.003 0.003 0.003 0.003 
0.003 0.003 0.003 0.003 0.003 0.003 0.003 0.003 0.003 
0.003 0.003 0.003 0.003 0.003 0.003 0.003 0.003 0.003 
0.003 0.003 0.003 0.003 0.003 0.003 0.003 0.003 0.003 
0.003 0.003 0.003 0.003 0.003 0.003 0.003 0.003 0.003 
0.003 0.003 0.003 0.003 0.003 0.003 0.003 0.003 0.003 
0.003 0.003 0.003 0.003 0.003 0.003 0.003 0.003 0.003 
0.003 0.003 0.003 0.003 0.003 0.003 0.003 0.003 0.003 
0.003 0.003 0.003 0.003 0.003 0.003 0.003 0.003 0.003 
0.003 0.003 0.003 0.003 0.003 0.003 0.003 0.003 0.003 
0.003 0.003 0.003 0.003 0.003 0.003 0.003 0.003 0.003 
0.003 0.003 0.003 0.003 0.003 0.003 0.003 0.003 0.003 
0.003 0.003 0.003 0.003 0.003 0.003 0.003 0.003 0.003 
0.003 0.003 0.003 0.003 0.003 0.003 0.003 0.003 0.003 
0.003 0.003 0.003 0.003 0.003 0.003 0.003 0.003 0.003 
0.003 0.003 0.003 0.003 0.003 0.003 0.003 0.003 0.003 
0.003 0.003 0.003 0.003 0.003 0.003 0.003 0.003 0.003 
0.003 0.003 0.003 0.003 0.003 0.003 0.003 0.003 0.003 
0.003 0.003 0.003 0.003 0.003 0.003 0.003 0.003 0.003 
0.003 0.003 0.003 0.003 0.003 0.003 0.003 0.003 0.003 
0.003 0.003 0.003 0.003 0.003 0.003 0.003 0.003 0.003 
0.003 0.003 0.003 0.003 0.003 0.003 0.003 0.003 0.003 
0.003 0.003 0.003 0.003 0.003 0.003 0.003 0.003 0.003 
0.003 0.003 0.003 0.003 0.003 0.003 0.003 0.003 0.003 
0.003 0.003 0.003 0.003 0.003 0.003 0.003 0.003 0.003 
0.003 0.003 0.003 0.003 0.003 0.003 0.003 0.003 0.003 
0.003 0.003 0.003 0.003 0.003 0.003 0.003 0.003 0.003 
0.003 0.003 0.003 0.003 0.003 0.003 0.003 0.003 0.003 
0.003 0.003 0.003 0.003 0.003 0.003 0.003 0.003 0.003 
0.003 0.003 0.003 0.003 0.003 0.003 0.003 0.003 0.003 
0.003 0.003 0.003 0.003 0.003 0.003 0.003 0.003 0.003 
0.003 0.003 0.003 0.003 0.003 0.003 0.003 0.003 0.003 
0.003 0.003 0.003 0.003 0.003 0.003 0.003 0.003 0.003 
0.003 0.003 0.003 0.003 0.003 0.003 0.003 0.003 0.003 
0.003 0.003 0.003 0.003 0.003 0.003 0.003 0.003 0.003 
0.003 0.003 0.003 0.003 0.003 0.003 0.003 0.003 0.003 
0.003 0.003 0.003 0.003 0.003 0.003 0.003 0.003 0.003 
0.003 0.003 0.003 0.003 0.003 0.003 0.003 0.003 0.003 
0.003 0.003 0.003 0.003 0.003 0.003 0.003 0.003 0.003 
0.003 0.003 0.003 0.003 0.003 0.003 0.003 0.003 0.003 
0.003 0.003 0.003 0.003 0.003 0.003 0.003 0.003 0.003 
0.003 0.003 0.003 0.003 0.003 0.003 0.003 0.003 0.003 
0.003 0.003 0.003 0.003 0.003 0.003 0.003 0.003 0.003 
0.003 0.003 0.003 0.003 0.003 0.003 0.003 0.003 0.003 
0.003 0.003 0.003 0.003 0.003 0.003 0.003 0.003 0.003 
0.003 0.003 0.003 0.003 0.003 0.003 0.003 0.003 0.003 
0.003 0.003 0.003 0.003 0.003 0.003 0.003 0.003 0.003 
0.003 0.003 0.003 0.003 0.003 0.003 0.003 0.003 0.003 
0.003 0.003 0.003 0.003 0.003 0.003 0.003 0.003 0.003 
0.003 0.003 0.003 0.003 0.003 0.003 0.003 0.003 0.003 
0.003 0.003 0.003 0.003 0.003 0.003 0.003 0.003 0.003 
0.003 0.003 0.003 0.003 0.003 0.003 0.003 0.003 0.003 
0.003 0.003 0.003 0.003 0.003 0.003 0.003 0.003 0.003 
0.003 0.003 0.003 0.003 0.003 0.003 0.003 0.003 0.003 
0.003 0.003 0.003 0.003 0.003 0.003 0.003 0.003 0.003 
0.003 0.003 0.003 0.003 0.003 0.003 0.003 0.003 0.003 
0.003 0.003 0.003 0.003 0.003 0.003 0.003 0.003 0.003 
0.003 0.003 0.003 0.003 0.003 0.003 0.003 0.003 0.003 
0.003 0.003 0.003 0.003 0.003 0.003 0.003 0.003 0.003 
0.003 0.003 0.003 0.003 0.003 0.003 0.003 0.003 0.003 
0.003 0.003 0.003 0.003 0.003 0.003 0.003 0.003 0.003 
0.003 0.003 0.003 0.003 0.003 0.003 0.003 0.003 0.003 
0.003 0.003 0.003 0.003 0.003 0.003 0.003 0.003 0.003 
0.003 0.003 0.003 0.003 0.003 0.003 0.003 0.003 0.003 
0.003 0.003 0.003 0.003 0.003 0.003 0.003 0.003 0.003 
0.003 0.003 0.003 0.003 0.003 0.003 0.003 0.003 0.003 
0.003 0.003 0.003 0.003 0.003 0.003 0.003 0.003 0.003 
0.003 0.003 0.003 0.003 0.003 0.003 0.003 0.003 0.003 
0.003 0.003 0.003 0.003 0.003 0.003 0.003 0.003 0.003 
0.003 0.003 0.003 0.003 0.003 0.003 0.003 0.003 0.003 
0.003 0.003 0.003 0.003 0.003 0.003 0.003 0.003 0.003 
0.003 0.003 0.003 0.003 0.003 0.003 0.003 0.003 0.003 
0.003 0.003 0.003 0.003 0.003 0.003 0.003 0.003 0.003 
0.003 0.003 0.003 0.003 0.003 0.003 0.003 0.003 0.003 
0.003 0.003 0.003 0.003 0.003 0.003 0.003 0.003 0.003 
0.003 0.003 0.003 0.003 0.003 0.003 0.003 0.003 0.003 
0.003 0.003 0.003 0.003 0.003 0.003 0.003 0.003 0.003 
0.003 0.003 0.003 0.003 0.003 0.003 0.003 0.003 0.003 
0.003 0.003 0.003 0.003 0.003 0.003 0.003 0.003 0.003 
0.003 0.003 0.003 0.003 0.003 0.003 0.003 0.003 0.003 
0.003 0.003 0.003 0.003 0.003 0.003 0.003 0.003 0.003 
0.003 0.003 0.003 0.003 0.003 0.003 0.003 0.003 0.003 
0.003 0.003 0.003 0.003 0.003 0.003 0.003 0.003 0.003 
0.003 0.003 0.003 0.003 0.003 0.003 0.003 0.003 0.003 
0.003 0.003 0.003 0.003 0.003 0.003 0.003 0.003 0.003 
0.003 0.003 0.003 0.003 0.003 0.003 0.003 0.003 0.003 
0.003 0.003 0.003 0.003 0.003 0.003 0.003 0.003 0.003 
0.003 0.003 0.003 0.003 0.003 0.003 0.003 0.003 0.003 
0.003 0.003 0.003 0.003 0.003 0.003 0.003 0.003 0.003 
0.003 0.003 0.003 0.003 0.003 0.003 0.003 0.003 0.003 
0.003 0.003 0.003 0.003 0.003 0.003 0.003 0.003 0.003 
0.003 0.003 0.003 0.003 0.003 0.003 0.003 0.003 0.003 
0.003 0.003 0.003 0.003 0.003 0.003 0.003 0.003 0.003 
0.003 0.003 0.003 0.003 0.003 0.003 0.003 0.003 0.003 
0.003 0.003 0.003 0.003 0.003 0.003 0.003 0.003 0.003 
0.003 0.003 0.003 0.003 0.003 0.003 0.003 0.003 0.003 
0.003 0.003 0.003 0.003 0.003 0.003 0.003 0.003 0.003 
0.003 0.003 0.003 0.003 0.003 0.003 0.003 0.003 0.003 
0.003 0.003 0.003 0.003 0.003 0.003 0.003 0.003 0.003 
0.003 0.003 0.003 0.003 0.003 0.003 0.003 0.003 0.003 
0.003 0.003 0.003 0.003 0.003 0.003 0.003 0.003 0.003 
0.003 0.003 0.003 0.003 0.003 0.003 0.003 0.003 0.003 
0.003 0.003 0.003 0.003 0.003 0.003 0.003 0.003 0.003 
0.003 0.003 0.003 0.003 0.003 0.003 0.003 0.003 0.003 
0.003 0.003 0.003 0.003 0.003 0.003 0.003 0.003 0.003 
0.003 0.003 0.003 0.003 0.003 0.003 0.003 0.003 0.003 
0.003 0.003 0.003 0.003 0.003 0.003 0.003 0.003 0.003 
0.003 0.003 0.003 0.003 0.003 0.003 0.003 0.003 0.003 
0.003 0.003 0.003 0.003 0.003 0.003 0.003 0.003 0.003 
0.003 0.003 0.003 0.003 0.003 0.003 0.003 0.003 0.003 
0.003 0.003 0.003 0.003 0.003 0.003 0.003 0.003 0.003 
0.003 0.003 0.003 0.003 0.003 0.003 0.003 0.003 0.003 
0.003 0.003 0.003 0.003 0.003 0.003 0.003 0.003 0.003 
0.003 0.003 0.003 0.003 0.003 0.003 0.003 0.003 0.003 
0.003 0.003 0.003 0.003 0.003 0.003 0.003 0.003 0.003 
0.003 0.003 0.003 0.003 0.003 0.003 0.003 0.003 0.003 
0.003 0.003 0.003 0.003 0.003 0.003 0.003 0.003 0.003 
0.003 0.003 0.003 0.003 0.003 0.003 0.003 0.003 0.003 
0.003 0.003 0.003 0.003 0.003 0.003 0.003 0.003 0.003 
0.003 0.003 0.003 0.003 0.003 0.003 0.003 0.003 0.003 
0.003 0.003 0.003 0.003 0.003 0.003 0.003 0.003 0.003 
0.003 0.003 0.003 0.003 0.003 0.003 0.003 0.003 0.003 
0.003 0.003 0.003 0.003 0.003 0.003 0.003 0.003 0.003 
0.003 0.003 0.003 0.003 0.003 0.003 0.003 0.003 0.003 
0.003 0.003 0.003 0.003 0.003 0.003 0.003 0.003 0.003 
0.003 0.003 0.003 0.003 0.003 0.003 0.003 0.003 0.003 
0.003 0.003 0.003 0.003 0.003 0.003 0.003 0.003 0.003 
0.003 0.003 0.003 0.003 0.003 0.003 0.003 0.003 0.003 
0.003 0.003 0.003 0.003 0.003 0.003 0.003 0.003 0.003 
0.003 0.003 0.003 0.003 0.003 0.003 0.003 0.003 0.003 
0.003 0.003 0.003 0.003 0.003 0.003 0.003 0.003 0.003 
0.003 0.003 0.003 0.003 0.003 0.003 0.003 0.003 0.003 
0.003 0.003 0.003 0.003 0.003 0.003 0.003 0.003 0.003 
0.003 0.003 0.003 0.003 0.003 0.003 0.003 0.003 0.003 
0.003 0.003 0.003 0.003 0.003 0.003 0.003 0.003 0.003 
0.003 0.003 0.003 0.003 0.003 0.003 0.003 0.003 0.003 
0.003 0.003 0.003 0.003 0.003 0.003 0.003 0.003 0.003 
0.003 0.003 0.003 0.003 0.003 0.003 0.003 0.003 0.003 
0.003 0.003 0.003 0.003 0.003 0.003 0.003 0.003 0.003 
0.003 0.003 0.003 0.003 0.003 0.003 0.003 0.003 0.003 
0.003 0.003 0.003 0.003 0.003 0.003 0.003 0.003 0.003 
0.003 0.003 0.003 0.003 0.003 0.003 0.003 0.003 0.003 
0.003 0.003 0.003 0.003 0.003 0.003 0.003 0.003 0.003 
0.003 0.003 0.003 0.003 0.003 0.003 0.003 0.003 0.003 
0.003 0.003 0.003 0.003 0.003 0.003 0.003 0.003 0.003 
0.003 0.003 0.003 0.003 0.003 0.003 0.003 0.003 0.003 
0.003 0.003 0.003 0.003 0.003 0.003 0.003 0.003 0.003 
0.003 0.003 0.003 0.003 0.003 0.003 0.003 0.003 0.003 
0.003 0.003 0.003 0.003 0.003 0.003 0.003 0.003 0.003 
0.003 0.003 0.003 0.003 0.003 0.003 0.003 0.003 0.003 
0.003 0.003 0.003 0.003 0.003 0.003 0.003 0.003 0.003 
0.003 0.003 0.003 0.003 0.003 0.003 0.003 0.003 0.003 
0.003 0.003 0.003 0.003 0.003 0.003 0.003 0.003 0.003 
0.003 0.003 0.003 0.003 0.003 0.003 0.003 0.003 0.003 
0.003 0.003 0.003 0.003 0.003 0.003 0.003 0.003 0.003 
0.003 0.003 0.003 0.003 0.003 0.003 0.003 0.003 0.003 
0.003 0.003 0.003 0.003 0.003 0.003 0.003 0.003 0.003 
0.003 0.003 0.003 0.003 0.003 0.003 0.003 0.003 0.003 
0.003 0.003 0.003 0.003 0.003 0.003 0.003 0.003 0.003 
0.003 0.003 0.003 0.003 0.003 0.003 0.003 0.003 0.003 
0.003 0.003 0.003 0.003 0.003 0.003 0.003 0.003 0.003 
0.003 0.003 0.003 0.003 0.003 0.003 0.003 0.003 0.003 
0.003 0.003 0.003 0.003 0.003 0.003 0.003 0.003 0.003 
0.003 0.003 0.003 0.003 0.003 0.003 0.003 0.003 0.003 
0.003 0.003 0.003 0.003 0.003 0.003 0.003 0.003 0.003 
0.003 0.003 0.003 0.003 0.003 0.003 0.003 0.003 0.003 
0.003 0.003 0.003 0.003 0.003 0.003 0.003 0.003 0.003 
0.003 0.003 0.003 0.003 0.003 0.003 0.003 0.003 0.003 
0.003 0.003 0.003 0.003 0.003 0.003 0.003 0.003 0.003 
0.003 0.003 0.003 0.003 0.003 0.003 0.003 0.003 0.003 
0.003 0.003 0.003 0.003 0.003 0.003 0.003 0.003 0.003 
0.003 0.003 0.003 0.003 0.003 0.003 0.003 0.003 0.003 
0.003 0.003 0.003 0.003 0.003 0.003 0.003 0.003 0.003 
0.003 0.003 0.003 0.003 0.003 0.003 0.003 0.003 0.003 
0.003 0.003 0.003 0.003 0.003 0.003 0.003 0.003 0.003 
0.003 0.003 0.003 0.003 0.003 0.003 0.003 0.003 0.003 
0.003 0.003 0.003 0.003 0.003 0.003 0.003 0.003 0.003 
0.003 0.003 0.003 0.003 0.003 0.003 0.003 0.003 0.003 
0.003 0.003 0.003 0.003 0.003 0.003 0.003 0.003 0.003 
0.003 0.003 0.003 0.003 0.003 0.003 0.003 0.003 0.003 
0.003 0.003 0.003 0.003 0.003 0.003 0.003 0.003 0.003 
0.003 0.003 0.003 0.003 0.003 0.003 0.003 0.003 0.003 
0.003 0.003 0.003 0.003 0.003 0.003 0.003 0.003 0.003 
0.003 0.003 0.003 0.003 0.003 0.003 0.003 0.003 0.003 
0.003 0.003 0.003 0.003 0.003 0.003 0.003 0.003 0.003 
0.003 0.003 0.003 0.003 0.003 0.003 0.003 0.003 0.003 
0.003 0.003 0.003 0.003 0.003 0.003 0.003 0.003 0.003 
0.003 0.003 0.003 0.003 0.003 0.003 0.003 0.003 0.003 
0.003 0.003 0.003 0.003 0.003 0.003 0.003 0.003 0.003 
0.003 0.003 0.003 0.003 0.003 0.003 0.003 0.003 0.003 
0.003 0.003 0.003 0.003 0.003 0.003 0.003 0.003 0.003 
0.003 0.003 0.003 0.003 0.003 0.003 0.003 0.003 0.003 
0.003 0.003 0.003 0.003 0.003 0.003 0.003 0.003 0.003 
0.003 0.003 0.003 0.003 0.003 0.003 0.003 0.003 0.003 
0.003 0.003 0.003 0.003 0.003 0.003 0.003 0.003 0.003 
0.003 0.003 0.003 0.003 0.003 0.003 0.003 0.003 0.003 
0.003 0.003 0.003 0.003 0.003 0.003 0.003 0.003 0.003 
0.003 0.003 0.003 0.003 0.003 0.003 0.003 0.003 0.003 
0.003 0.003 0.003 0.003 0.003 0.003 0.003 0.003 0.003 
0.003 0.003 0.003 0.003 0.003 0.003 0.003 0.003 0.003 
0.003 0.003 0.003 0.003 0.003 0.003 0.003 0.003 0.003 
0.003 0.003 0.003 0.003 0.003 0.003 0.003 0.003 0.003 
0.003 0.003 0.003 0.003 0.003 0.003 0.003 0.003 0.003 
0.003 0.003 0.003 0.003 0.003 0.003 0.003 0.003 0.003 
0.003 0.003 0.003 0.003 0.003 0.003 0.003 0.003 0.003 
0.003 0.003 0.003 0.003 0.003 0.003 0.003 0.003 0.003 
0.003 0.003 0.003 0.003 0.003 0.003 0.003 0.003 0.003 
0.003 0.003 0.003 0.003 0.003 0.003 0.003 0.003 0.003 
0.003 0.003 0.003 0.003 0.003 0.003 0.003 0.003 0.003 
0.003 0.003 0.003 0.003 0.003 0.003 0.003 0.003 0.003 
0.003 0.003 0.003 0.003 0.003 0.003 0.003 0.003 0.003 
0.003 0.003 0.003 0.003 0.003 0.003 0.003 0.003 0.003 
0.003 0.003 0.003 0.003 0.003 0.003 0.003 0.003 0.003 
0.003 0.003 0.003 0.003 0.003 0.003 0.003 0.003 0.003 
0.003 0.003 0.003 0.003 0.003 0.003 0.003 0.003 0.003 
0.003 0.003 0.003 0.003 0.003 0.003 0.003 0.003 0.003 
0.003 0.003 0.003 0.003 0.003 0.003 0.003 0.003 0.003 
0.003 0.003 0.003 0.003 0.003 0.003 0.003 0.003 0.003 
0.003 0.003 0.003 0.003 0.003 0.003 0.003 0.003 0.003 
0.003 0.003 0.003 0.003 0.003 0.003 0.003 0.003 0.003 
0.003 0.003 0.003 0.003 0.003 0.003 0.003 0.003 0.003 
0.003 0.003 0.003 0.003 0.003 0.003 0.003 0.003 0.003 
0.003 0.003 0.003 0.003 0.003 0.003 0.003 0.003 0.003 
0.003 0.003 0.003 0.003 0.003 0.003 0.003 0.003 0.003 
0.003 0.003 0.003 0.003 0.003 0.003 0.003 0.003 0.003 
0.003 0.003 0.003 0.003 0.003 0.003 0.003 0.003 0.003 
0.003 0.003 0.003 0.003 0.003 0.003 0.003 0.003 0.003 
0.003 0.003 0.003 0.003 0.003 0.003 0.003 0.003 0.003 
0.003 0.003 0.003 0.003 0.003 0.003 0.003 0.003 0.003 
0.003 0.003 0.003 0.003 0.003 0.003 0.003 0.003 0.003 
0.003 0.003 0.003 0.003 0.003 0.003 0.003 0.003 0.003 
0.003 0.003 0.003 0.003 0.003 0.003 0.003 0.003 0.003 
0.003 0.003 0.003 0.003 0.003 0.003 0.003 0.003 0.003 
0.003 0.003 0.003 0.003 0.003 0.003 0.003 0.003 0.003 
0.003 0.003 0.003 0.003 0.003 0.003 0.003 0.003 0.003 
0.003 0.003 0.003 0.003 0.003 0.003 0.003 0.003 0.003 
0.003 0.003 0.003 0.003 0.003 0.003 0.003 0.003 0.003 
0.003 0.003 0.003 0.003 0.003 0.003 0.003 0.003 0.003 
0.003 0.003 0.003 0.003 0.003 0.003 0.003 0.003 0.003 
0.003 0.003 0.003 0.003 0.003 0.003 0.003 0.003 0.003 
0.003 0.003 0.003 0.003 0.003 0.003 0.003 0.003 0.003 
0.003 0.003 0.003 0.003 0.003 0.003 0.003 0.003 0.003 
0.003 0.003 0.003 0.003 0.003 0.003 0.003 0.003 0.003 
0.003 0.003 0.003 0.003 0.003 0.003 0.003 0.003 0.003 
0.003 0.003 0.003 0.003 0.003 0.003 0.003 0.003 0.003 
0.003 0.003 0.003 0.003 0.003 0.003 0.003 0.003 0.003 
0.003 0.003 0.003 0.003 0.003 0.003 0.003 0.003 0.003 
0.003 0.003 0.003 0.003 0.003 0.003 0.003 0.003 0.003 
0.003 0.003 0.003 0.003 0.003 0.003 0.003 0.003 0.003 
0.003 0.003 0.003 0.003 0.003 0.003 0.003 0.003 0.003 
0.003 0.003 0.003 0.003 0.003 0.003 0.003 0.003 0.003 
0.003 0.003 0.003 0.003 0.003 0.003 0.003 0.003 0.003 
0.003 0.003 0.003 0.003 0.003 0.003 0.003 0.003 0.003 
0.003 0.003 0.003 0.003 0.003 0.003 0.003 0.003 0.003 
0.003 0.003 0.003 0.003 0.003 0.003 0.003 0.003 0.003 
0.003 0.003 0.003 0.003 0.003 0.003 0.003 0.003 0.003 
0.003 0.003 0.003 0.003 0.003 0.003 0.003 0.003 0.003 
0.003 0.003 0.003 0.003 0.003 0.003 0.003 0.003 0.003 
0.003 0.003 0.003 0.003 0.003 0.003 0.003 0.003 0.003 
0.003 0.003 0.003 0.003 0.003 0.003 0.003 0.003 0.003 
0.003 0.003 0.003 0.003 0.003 0.003 0.003 0.003 0.003 
0.003 0.003 0.003 0.003 0.003 0.003 0.003 0.003 0.003 
0.003 0.003 0.003 0.003 0.003 0.003 0.003 0.003 0.003 
0.003 0.003 0.003 0.003 0.003 0.003 0.003 0.003 0.003 
0.003 0.003 0.003 0.003 0.003 0.003 0.003 0.003 0.003 
0.003 0.003 0.003 0.003 0.003 0.003 0.003 0.003 0.003 
0.003 0.003 0.003 0.003 0.003 0.003 0.003 0.003 0.003 
0.003 0.003 0.003 0.003 0.003 0.003 0.003 0.003 0.003 
0.003 0.003 0.003 0.003 0.003 0.003 0.003 0.003 0.003 
0.003 0.003 0.003 0.003 0.003 0.003 0.003 0.003 0.003 
0.003 0.003 0.003 0.003 0.003 0.003 0.003 0.003 0.003 
0.003 0.003 0.003 0.003 0.003 0.003 0.003 0.003 0.003 
0.003 0.003 0.003 0.003 0.003 0.003 0.003 0.003 0.003 
0.003 0.003 0.003 0.003 0.003 0.003 0.003 0.003 0.003 
0.003 0.003 0.003 0.003 0.003 0.003 0.003 0.003 0.003 
0.003 0.003 0.003 0.003 0.003 0.003 0.003 0.003 0.003 
0.003 0.003 0.003 0.003 0.003 0.003 0.003 0.003 0.003 
0.003 0.003 0.003 0.003 0.003 0.003 0.003 0.003 0.003 
0.003 0.003 0.003 0.003 0.003 0.003 0.003 0.003 0.003 
0.003 0.003 0.003 0.003 0.003 0.003 0.003 0.003 0.003 
0.003 0.003 0.003 0.003 0.003 0.003 0.003 0.003 0.003 
0.003 0.003 0.003 0.003 0.003 0.003 0.003 0.003 0.003 
0.003 0.003 0.003 0.003 0.003 0.003 0.003 0.003 0.003 
0.003 0.003 0.003 0.003 0.003 0.003 0.003 0.003 0.003 
0.003 0.003 0.003 0.003 0.003 0.003 0.003 0.003 0.003 
0.003 0.003 0.003 0.003 0.003 0.003 0.003 0.003 0.003 
0.003 0.003 0.003 0.003 0.003 0.003 0.003 0.003 0.003 
0.003 0.003 0.003 0.003 0.003 0.003 0.003 0.003 0.003 
0.003 0.003 0.003 0.003 0.003 0.003 0.003 0.003 0.003 
0.003 0.003 0.003 0.003 0.003 0.003 0.003 0.003 0.003 
0.003 0.003 0.003 0.003 0.003 0.003 0.003 0.003 0.003 
0.003 0.003 0.003 0.003 0.003 0.003 0.003 0.003 0.003 
0.003 0.003 0.003 0.003 0.003 0.003 0.003 0.003 0.003 
0.003 0.003 0.003 0.003 0.003 0.003 0.003 0.003 0.003 
0.003 0.003 0.003 0.003 0.003 0.003 0.003 0.003 0.003 
0.003 0.003 0.003 0.003 0.003 0.003 0.003 0.003 0.003 
0.003 0.003 0.003 0.003 0.003 0.003 0.003 0.003 0.003 
0.003 0.003 0.003 0.003 0.003 0.003 0.003 0.003 0.003 
0.003 0.003 0.003 0.003 0.003 0.003 0.003 0.003 0.003 
0.003 0.003 0.003 0.003 0.003 0.003 0.003 0.003 0.003 
0.003 0.003 0.003 0.003 0.003 0.003 0.003 0.003 0.003 
0.003 0.003 0.003 0.003 0.003 0.003 0.003 0.003 0.003 
0.003 0.003 0.003 0.003 0.003 0.003 0.003 0.003 0.003 
0.003 0.003 0.003 0.003 0.003 0.003 0.003 0.003 0.003 
0.003 0.003 0.003 0.003 0.003 0.003 0.003 0.003 0.003 
0.003 0.003 0.003 0.003 0.003 0.003 0.003 0.003 0.003 
0.003 0.003 0.003 0.003 0.003 0.003 0.003 0.003 0.003 
0.003 0.003 0.003 0.003 0.003 0.003 0.003 0.003 0.003 
0.003 0.003 0.003 0.003 0.003 0.003 0.003 0.003 0.003 
0.003 0.003 0.003 0.003 0.003 0.003 0.003 0.003 0.003 
0.003 0.003 0.003 0.003 0.003 0.003 0.003 0.003 0.003 
0.003 0.003 0.003 0.003 0.003 0.003 0.003 0.003 0.003 
0.003 0.003 0.003 0.003 0.003 0.003 0.003 0.003 0.003 
0.003 0.003 0.003 0.003 0.003 0.003 0.003 0.003 0.003 
0.003 0.003 0.003 0.003 0.003 0.003 0.003 0.003 0.003 
0.003 0.003 0.003 0.003 0.003 0.003 0.003 0.003 0.003 
0.003 0.003 0.003 0.003 0.003 0.003 0.003 0.003 0.003 
0.003 0.003 0.003 0.003 0.003 0.003 0.003 0.003 0.003 
0.003 0.003 0.003 0.003 0.003 0.003 0.003 0.003 0.003 
0.003 0.003 0.003 0.003 0.003 0.003 0.003 0.003 0.003 
0.003 0.003 0.003 0.003 0.003 0.003 0.003 0.003 0.003 