# vtk DataFile Version 4.1
vtk output
ASCII
DATASET POLYDATA
FIELD FieldData 3
PORINGUMAS 1 1 double
0.69424570705 
UNIQUE_RADIUS 1 7 double
5e-05 7e-05 9e-05 0.00011 0.00013 0.00015 0.00017 
PARTICLE_TYPE 1 7 double
3 4 8 14 21 20 17 
POINTS 54554 float
0 0 0 0.00034 0 0 0.00017 0.000294449 0 
0.00017 9.81495e-05 9.93311e-05 0.00025876 0.000149395 0.000271074 1.05702e-05 0.000190196 0.000205216 
0.000427554 0.000246849 9.89952e-05 0.000324811 0.000440281 0.000239095 0.0005437 6.11547e-05 0.000239095 
9.59435e-05 0.000368042 0.000238117 0.000395595 0.000423285 1.04013e-05 0.000459547 0.00026532 0.00033309 
8.5269e-05 0.000577853 0.000122077 4.91072e-05 0.000266864 0.000450648 0.000116802 0.000507683 0.000379769 
0.000321036 0.000308484 0.000439633 0.000427673 0.000123783 0.000439633 0.000549287 0.000360662 0.000209573 
0.000218436 0.000431491 0.000559395 0.000238824 0.000675902 0.000307568 0.000569344 0.000473938 0.000442739 
0.000567664 0.000596039 0.000100668 0.000698883 0.000246991 2.98507e-05 0.000274833 0.0001757 0.000658342 
0.000617536 0.000256046 0.000309561 0.00068673 0.000438019 0.00023651 0.000589046 0.000196835 0.000601566 
0.00081606 0.000161401 0.000315059 0.000870531 0.000497337 0.000131161 0.000302594 0.00080648 6.82302e-05 
0.000158718 0.000704641 0.000574321 0.000486105 0.000794205 0.000364635 1.13838e-05 0.000801882 0.000307419 
0.000401554 0.00054331 0.000706242 0.000137205 0.000485957 0.000778563 0.000230138 0.000944345 0.000408667 
0.000423817 0.000818068 0.000657126 0.000486007 0.000301871 0.000863005 0.000843276 0.000347192 0.000549027 
0.000296403 0.000566661 6.12722e-05 6.42533e-05 0.000795036 9.39762e-05 0.000165441 0.00093223 0.000219809 
0.000350983 0.000955875 0.000249723 0.000532588 0.000831368 0.000132131 0.000737516 0.000608528 0.000297123 
0.000935688 0.000266391 0.00013543 0.000930548 0.000372005 0.000326838 0.000805754 0.000768011 0.000161814 
0.00111288 0.0003774 0.000203847 0.000935362 0.000582743 0.000389816 0.00018847 0.00026495 0.000974848 
0.000796919 0.000228913 0.00084273 0.00051272 0.00106985 0.000113887 7.86805e-05 0.00101104 0.000296365 
5.4431e-05 0.000906212 0.000496263 0.000244796 0.00104625 0.000237202 0.000259906 0.000920101 0.000604948 
0.000408165 0.00102114 0.000359589 0.000398054 0.000957894 0.000516467 6.66942e-05 0.000991435 5.62733e-05 
0.000396183 7.34763e-07 0.000923411 0.000680192 0.000525664 0.000816011 0.000299303 0.00123441 0.000375851 
0.00059694 0.00108978 0.000490942 0.000744874 0.000723538 0.000539119 0.00107822 0.000707338 0.00018374 
0.00113014 0.000403979 0.000482048 9.49697e-05 0.000334562 0.000654887 0.000305079 0.000453153 0.000882209 
5.26969e-05 0.000490563 0.000597353 0.000237088 0.000658311 0.000796384 0.000673571 0.000954555 0.000282512 
3.27881e-05 0.000745236 0.000887521 0.000850674 0.000950005 0.000412949 0.000656141 0.000912563 0.000725656 
0.000959854 0.000581464 0.000648657 0.000341225 0.000631575 0.000965027 6.3903e-05 0.000966069 0.000686861 
0.000303403 0.000874537 0.000880535 0.000316587 0.00112512 0.000716106 0.000256189 0.00104009 9.7802e-05 
0.000123474 0.00110945 0.000207429 0.000816518 0.000745293 0.000788105 0.000883255 0.000914779 0.000648104 
0.000998132 0.00077738 0.000515421 0.00116035 0.000656659 0.000428754 0.00104532 0.000790499 0.000729901 
0.00105503 0.000989204 0.000532542 0.000599601 0.000782007 0.000989774 0.000975261 0.000502385 0.000937636 
0.000852363 0.00106238 0.000127571 0.000836994 6.88158e-05 0.000578478 0.000923053 5.39488e-05 7.96729e-05 
0.00109422 0.000161261 0.00034715 6.86628e-05 4.31067e-06 0.000250733 0.000154619 5.17144e-05 0.000463982 
0.00120793 0.00083228 0.000552418 0.00110008 0.000274416 0.000750953 0.00121887 0.000598365 0.000753668 
0.000976636 0.000819703 0.000978959 0.000250095 0.00127336 4.16927e-05 0.000601847 0.00135431 0.000277404 
0.000476545 0.00134579 0.000590746 0.00060697 0.00116156 0.000782053 0.000846537 0.00121754 0.00038427 
0.000255262 0.000571782 0.000427938 0.000327527 0.000661619 0.000439961 1.98292e-05 0.00055141 0.000499285 
2.47302e-05 0.000633737 0.000414885 0.000313727 0.00055587 0.000526998 1.61521e-05 0.00057237 0.000677178 
0.000216004 0.000871649 0.000705571 0.000376173 0.000675411 0.000558238 0.00112271 0.000987448 0.000281511 
0.00132483 0.000552683 0.000256311 3.7664e-06 5.17998e-05 0.000624117 0.00097766 6.80131e-05 0.000747631 
0.00104452 0.000139552 0.000560362 0.0010195 0.000249004 0.00097559 0.00121775 0.000413725 0.000906988 
0.0012903 0.000389189 0.000660169 8.00274e-05 0.00110419 0.00042645 8.02935e-05 0.00126042 0.000238162 
0.000360817 0.00143058 0.000216683 0.000257024 0.00135196 0.000603877 0.000412487 0.00146481 0.000417162 
0.000891746 0.00110253 0.000855656 0.0010903 0.000462335 0.000683197 0.00112535 0.000579452 0.000577893 
0.00110128 0.000688965 0.000619634 0.00119081 0.00054586 0.000944603 0.00106296 0.000682421 0.000846553 
0.00126934 0.000504904 0.000584206 0.00123379 0.000675329 0.000569674 0.00130247 0.000421633 0.000795814 
0.0012037 0.000792321 0.00070729 0.00113732 0.000157405 0.000111084 0.00124002 0.000174908 0.000537296 
0.00129874 0.000284704 0.000324105 0.00101212 0.000361382 3.18236e-05 0.00107997 0.000520329 6.78747e-05 
0.0012723 0.000271074 0.000146581 0.000494856 0.000980723 0.000858852 0.000660603 0.00103183 0.000951438 
0.000145996 0.00147033 0.000242601 1.79165e-05 0.00131466 0.000442041 0.00118689 0.000980219 0.000837436 
0.000334819 0.00142797 0.000817814 0.000604238 0.00157962 0.000504622 0.000754777 0.00133624 0.000620679 
0.00110841 5.44828e-05 0.000924042 0.00136948 0.000199223 0.000737916 0.00135515 9.41772e-05 0.000189506 
0.0014629 0.000331037 0.000155271 0.00151358 0.000474037 0.000762872 1.84026e-05 0.00124118 0.000712226 
0.000155294 0.00154862 0.000511274 0.000113609 0.00146072 0.000730672 0.000310353 0.00158609 0.000331964 
0.000374268 0.00153971 0.000609104 3.88911e-05 0.000224175 0.000756227 0.00114954 0.000636653 0.000937318 
0.00128868 0.000532387 0.000929091 0.000844515 0.001482 0.000399091 0.000735392 0.0013548 0.00089939 
0.00100628 0.00121722 0.000589405 0.000616439 0.00134051 0.000765055 0.000701783 0.00118134 0.000933775 
0.000866233 0.00130914 0.000784517 7.17156e-05 0.00140225 0.000959641 0.000185602 0.00168497 0.00077677 
0.000114502 9.79755e-05 0.00081913 5.24868e-06 0.000351907 0.000846519 0.000186574 0.000504918 0.000971444 
0.00137145 0.000655161 0.00049067 0.000104334 0.0010327 0.000934905 0.000606843 0.00150007 0.000758068 
0.000915704 0.00146128 0.000782132 0.00126036 0.00114464 0.000496784 0.00110344 0.00135604 0.000314884 
0.0012266 0.00129226 0.000778687 0.00144625 0.000937654 0.000654899 0.00104056 0.00139731 0.000669356 
0.00116358 0.00133462 0.000551017 0.000999002 0.00131717 0.00085064 0.00110931 0.00115874 0.000939968 
0.00136857 0.00110164 0.000811981 0.00140049 0.00117308 0.000663979 0.000144103 0.00172515 0.000294222 
0.00036808 0.00172921 0.000488758 0.000437645 0.00121228 0.000999209 0.000470319 0.00169026 0.000871152 
0.00110758 0.0011746 0.000101666 0.0010393 0.00151695 0.000534874 0.00130136 0.00117207 0.000241506 
0.00131985 0.00139758 0.000487638 0.00133548 0.000480824 0.000463971 0.00129725 0.000747344 0.000355036 
0.00140873 0.000667145 0.000666361 0.00136072 0.000831708 0.000457261 0.000299197 0.00156891 5.70968e-05 
0.00153193 0.000187512 0.000385566 0.00124582 0.000465448 2.44757e-05 0.0015037 0.000444715 0.00041106 
0.00132007 0.000802754 0.000185305 0.00129898 0.00100939 6.50689e-05 0.00140905 0.000975175 0.000326564 
0.00127862 0.0013403 7.18528e-05 0.00148126 0.00126292 0.000371822 0.001344 0.000222557 3.65545e-05 
0.00154621 0.000149757 0.000169302 0.00141761 0.000502707 6.31948e-05 0.00153679 0.000495617 0.000241608 
0.001609 0.00036829 0.000286676 0.00120693 0.000764311 0.000940305 0.00149089 0.00135088 0.000649392 
0.00132251 0.0011344 0.000961666 0.00141594 0.000983568 0.000909012 0.00147235 0.00122248 0.000827069 
0.00152021 0.000607011 0.000127957 0.00153962 0.000625919 0.000334415 0.00165497 0.000438205 0.000150299 
0.00168708 0.000240228 5.98869e-05 0.0010686 0.00146411 0.000967106 0.0013285 0.00155284 0.000670447 
0.00146538 0.00143154 0.000895248 0.00152891 0.00150767 0.000445495 0.00162981 0.00115265 0.000554503 
0.00151289 0.00118816 9.11921e-05 0.00146327 0.000736172 0.000973474 0.00166275 0.000180669 0.000677523 
0.000507264 0.00163753 0.000248413 0.000708665 0.00171507 0.00072632 4.86698e-05 0.00163746 6.88276e-05 
0.000340859 0.00180943 0.000146627 0.000131189 0.00182671 0.000533215 0.00119775 3.54386e-05 0.000702104 
0.00141207 4.02786e-05 0.00056321 0.0012719 0.000227373 0.000955368 0.00152646 0.000239308 0.000914979 
0.00111855 0.00152352 0.000729265 0.00125835 0.00153054 0.000877767 0.00122299 0.00157232 0.000478382 
0.00154787 0.00156322 0.000657518 0.00154407 6.47468e-06 2.37144e-06 0.000206976 0.000376415 0.000395185 
5.88675e-06 0.00047015 0.000270732 1.05557e-05 0.000601889 0.000306034 8.6065e-05 0.00191366 9.54907e-05 
0.00141423 0.00168578 0.000876789 0.00167798 0.00130057 0.000822786 0.000321228 0.00187941 0.000669994 
0.000169731 0.00195986 0.000337288 0.00146449 0.00171218 0.000553315 0.00170996 0.00144801 0.000636139 
0.00163215 0.00159375 0.000836305 0.000701257 0.0015896 0.000935463 0.00179649 0.00126775 0.000640361 
0.00167881 0.00134793 0.000465808 0.00179798 0.00148464 0.000811951 0.00167942 0.00162714 0.000552593 
0.000745925 0.000951128 0.000574488 0.000780687 0.00103372 0.00067865 0.000909769 0.000756993 0.000647241 
0.000906454 0.00104367 0.000556183 0.000902804 0.00087922 0.000802873 0.000960464 0.00105486 0.000652173 
0.00100187 0.000942934 0.000751724 0.000781717 0.00160359 0.000132122 0.000609471 0.00187956 0.000393232 
0.00152826 0.000895237 0.000109773 0.00159454 0.000820059 0.00042213 0.00164891 0.0010737 0.000307519 
0.000506969 0.00142294 1.202e-06 0.0017585 0.000853538 0.000223141 0.00179878 0.000965704 0.000490478 
[...]
POINT_DATA 54554
SCALARS RADIUS double
LOOKUP_TABLE default
0.00017 0.00017 0.00017 5e-05 0.00015 0.00011 0.00011 0.00015 0.00015 
9e-05 9e-05 9e-05 0.00015 0.00015 0.00011 9e-05 9e-05 9e-05 
0.00011 0.00011 0.00017 0.00017 0.00017 0.00017 7e-05 7e-05 0.00015 
0.00015 0.00015 0.00017 0.00017 0.00017 0.00015 0.00015 0.00013 0.00013 
0.00013 0.00015 0.00015 7e-05 7e-05 7e-05 7e-05 7e-05 9e-05 
9e-05 9e-05 0.00013 0.00013 0.00013 0.00017 0.00017 0.00017 7e-05 
7e-05 7e-05 7e-05 7e-05 7e-05 0.00013 0.00017 0.00015 0.00017 
0.00017 0.00015 0.00015 0.00015 7e-05 7e-05 7e-05 7e-05 9e-05 
0.00017 0.00013 0.00013 0.00013 0.00013 0.00013 0.00013 0.00017 7e-05 
7e-05 0.00011 0.00011 0.00011 0.00011 0.00011 0.00011 0.00017 0.00017 
0.00017 0.00013 0.00013 0.00013 9e-05 9e-05 0.00011 0.00015 0.00015 
0.00015 0.00017 0.00017 0.00013 0.00013 0.00013 5e-05 5e-05 5e-05 
5e-05 5e-05 5e-05 5e-05 5e-05 0.00015 0.00015 0.00013 9e-05 
9e-05 9e-05 9e-05 9e-05 9e-05 9e-05 9e-05 9e-05 9e-05 
0.00017 5e-05 5e-05 5e-05 5e-05 5e-05 5e-05 5e-05 5e-05 
5e-05 0.00011 0.00011 0.00011 7e-05 7e-05 7e-05 9e-05 9e-05 
0.00013 0.00013 0.00015 0.00015 0.00015 0.00015 0.00013 0.00013 0.00013 
0.00013 0.00017 0.00015 0.00015 9e-05 9e-05 9e-05 9e-05 5e-05 
5e-05 0.00013 0.00013 0.00013 5e-05 5e-05 5e-05 0.00015 0.00015 
7e-05 7e-05 7e-05 0.00011 0.00013 0.00011 0.00011 0.00015 0.00017 
0.00017 0.00017 7e-05 7e-05 7e-05 7e-05 7e-05 7e-05 0.00013 
0.00013 0.00015 0.00015 0.00011 0.00011 0.00011 0.00011 7e-05 7e-05 
7e-05 7e-05 0.00013 0.00015 0.00011 0.00011 0.00011 0.00013 0.00013 
0.00013 0.00013 7e-05 7e-05 7e-05 7e-05 7e-05 9e-05 0.00013 
9e-05 9e-05 9e-05 9e-05 9e-05 9e-05 0.00013 0.00013 0.00013 
0.00013 0.00013 0.00013 0.00015 0.00017 0.00017 0.00013 0.00013 0.00013 
0.00013 0.00013 0.00011 0.00011 0.00011 0.00011 9e-05 9e-05 9e-05 
9e-05 0.00015 5e-05 5e-05 5e-05 0.00015 0.00013 0.00013 0.00011 
0.00011 0.00011 0.00011 0.00011 0.00011 9e-05 9e-05 9e-05 9e-05 
5e-05 5e-05 5e-05 5e-05 5e-05 5e-05 5e-05 0.00017 0.00017 
0.00013 0.00013 0.00013 0.00013 0.00013 0.00013 0.00013 0.00011 0.00011 
5e-05 5e-05 5e-05 5e-05 5e-05 0.00011 0.00011 0.00011 0.00011 
0.00011 0.00011 5e-05 5e-05 5e-05 5e-05 0.00017 0.00013 0.00013 
0.00013 0.00013 0.00015 0.00015 0.00015 7e-05 0.00013 0.00013 0.00013 
0.00013 0.00011 0.00011 0.00017 0.00011 0.00011 0.00011 7e-05 7e-05 
7e-05 7e-05 7e-05 0.00017 0.00017 5e-05 5e-05 5e-05 0.00011 
0.00011 0.00011 0.00011 0.00013 9e-05 0.00011 0.00011 0.00011 0.00011 
5e-05 5e-05 5e-05 5e-05 5e-05 0.00011 0.00011 0.00013 9e-05 
9e-05 9e-05 9e-05 9e-05 0.00011 0.00011 5e-05 5e-05 5e-05 
5e-05 5e-05 5e-05 0.00013 0.00011 0.00017 0.00017 7e-05 7e-05 
7e-05 7e-05 0.00015 7e-05 7e-05 7e-05 7e-05 7e-05 0.00013 
0.00011 0.00015 0.00015 0.00013 0.00013 0.00015 5e-05 5e-05 5e-05 
5e-05 5e-05 5e-05 5e-05 5e-05 5e-05 5e-05 5e-05 5e-05 
0.00017 9e-05 9e-05 9e-05 7e-05 7e-05 7e-05 0.00015 0.00015 
0.00013 0.00013 0.00011 0.00011 0.00011 0.00017 0.00011 0.00011 7e-05 
0.00015 0.00013 0.00017 0.00017 0.00017 9e-05 9e-05 0.00013 0.00013 
0.00013 0.00011 0.00011 0.00015 0.00011 0.00011 0.00011 0.00011 9e-05 
9e-05 0.00017 0.00015 0.00017 9e-05 0.00015 0.00015 0.00015 0.00011 
5e-05 5e-05 5e-05 5e-05 5e-05 5e-05 0.00015 0.00015 0.00017 
0.00017 0.00017 0.00017 0.00011 0.00013 0.00013 0.00013 0.00013 5e-05 
5e-05 5e-05 5e-05 5e-05 5e-05 5e-05 5e-05 5e-05 5e-05 
5e-05 5e-05 0.00017 0.00017 0.00015 5e-05 5e-05 5e-05 9e-05 
9e-05 9e-05 9e-05 0.00015 0.00015 0.00015 0.00015 0.00015 9e-05 
9e-05 9e-05 9e-05 9e-05 0.00011 0.00011 0.00011 0.00011 5e-05 
5e-05 5e-05 5e-05 5e-05 5e-05 0.00015 0.00015 0.00015 5e-05 
5e-05 5e-05 5e-05 0.00017 0.00017 0.00017 0.00017 0.00017 0.00017 
0.00017 0.00017 0.00013 0.00013 0.00013 0.00015 9e-05 9e-05 9e-05 
9e-05 0.00017 0.00017 0.00017 0.00017 0.00017 0.00013 0.00011 0.00011 
0.00011 0.00011 0.00011 0.00015 0.00015 0.00013 0.00017 0.00011 0.00011 
0.00013 0.00013 0.00011 0.00017 0.00017 0.00017 0.00017 0.00011 0.00011 
0.00011 0.00011 0.00011 5e-05 5e-05 5e-05 5e-05 5e-05 0.00015 
0.00015 0.00011 0.00011 0.00011 0.00013 0.00013 7e-05 7e-05 7e-05 
7e-05 7e-05 0.00013 5e-05 5e-05 5e-05 5e-05 5e-05 5e-05 
5e-05 5e-05 0.00013 0.00013 0.00013 0.00013 9e-05 9e-05 0.00017 
0.00017 0.00017 0.00013 5e-05 0.00013 0.00013 0.00013 0.00011 0.00011 
7e-05 0.00015 0.00017 0.00013 0.00013 9e-05 9e-05 9e-05 0.00015 
0.00011 0.00015 0.00015 0.00015 0.00015 0.00015 9e-05 9e-05 9e-05 
7e-05 0.00011 0.00011 0.00011 0.00011 0.00017 0.00017 7e-05 0.00015 
0.00015 0.00015 5e-05 5e-05 5e-05 5e-05 5e-05 5e-05 5e-05 
5e-05 5e-05 5e-05 0.00015 0.00015 9e-05 0.00017 9e-05 9e-05 
9e-05 9e-05 9e-05 0.00011 0.00011 0.00015 7e-05 7e-05 7e-05 
7e-05 0.00017 0.00017 0.00015 0.00015 9e-05 9e-05 0.00011 0.00011 
0.00015 0.00015 0.00015 0.00015 9e-05 9e-05 9e-05 9e-05 9e-05 
0.00015 0.00015 0.00015 0.00013 0.00011 9e-05 9e-05 9e-05 9e-05 
0.00015 0.00015 0.00015 0.00015 0.00015 0.00015 7e-05 7e-05 0.00015 
0.00017 0.00017 0.00017 0.00017 0.00011 0.00011 0.00011 0.00011 0.00011 
0.00011 0.00011 0.00017 0.00017 5e-05 5e-05 5e-05 5e-05 5e-05 
5e-05 5e-05 5e-05 5e-05 5e-05 0.00013 9e-05 0.00011 0.00011 
0.00011 0.00011 0.00011 0.00017 0.00013 0.00013 0.00017 0.00015 0.00011 
0.00011 0.00011 0.00011 0.00017 0.00017 0.00017 0.00017 0.00015 9e-05 
9e-05 7e-05 9e-05 9e-05 9e-05 9e-05 7e-05 7e-05 7e-05 
7e-05 0.00013 0.00015 9e-05 9e-05 9e-05 0.00017 7e-05 7e-05 
7e-05 7e-05 9e-05 5e-05 5e-05 5e-05 5e-05 9e-05 9e-05 
9e-05 9e-05 0.00013 0.00017 0.00017 5e-05 5e-05 5e-05 5e-05 
5e-05 5e-05 0.00017 0.00017 0.00013 0.00013 0.00017 0.00011 0.00011 
0.00011 0.00017 0.00017 0.00017 0.00013 0.00013 0.00013 0.00013 0.00013 
0.00013 0.00013 0.00013 9e-05 0.00013 0.00013 0.00013 9e-05 9e-05 
9e-05 9e-05 9e-05 0.00015 0.00015 0.00015 0.00013 0.00013 0.00011 
0.00011 0.00011 0.00011 0.00011 0.00013 0.00013 0.00017 0.00017 0.00017 
0.00013 0.00013 0.00013 0.00013 7e-05 0.00011 0.00011 0.00011 0.00011 
0.00011 0.00011 0.00011 0.00011 5e-05 5e-05 5e-05 5e-05 5e-05 
0.00011 0.00011 0.00011 7e-05 7e-05 7e-05 7e-05 0.00013 0.00011 
0.00011 0.00017 0.00017 0.00017 0.00017 9e-05 0.00011 0.00015 0.00013 
0.00013 9e-05 0.00013 7e-05 7e-05 7e-05 7e-05 7e-05 7e-05 
0.00015 7e-05 7e-05 7e-05 7e-05 7e-05 9e-05 9e-05 9e-05 
0.00015 0.00015 0.00017 0.00015 0.00015 0.00015 0.00017 0.00017 0.00015 
0.00015 5e-05 5e-05 5e-05 5e-05 5e-05 5e-05 5e-05 5e-05 
5e-05 0.00017 9e-05 9e-05 9e-05 0.00013 0.00015 0.00011 0.00011 
0.00015 0.00015 0.00015 5e-05 5e-05 5e-05 5e-05 5e-05 5e-05 
5e-05 5e-05 5e-05 5e-05 0.00011 0.00011 0.00013 0.00013 0.00013 
0.00013 5e-05 5e-05 5e-05 5e-05 5e-05 5e-05 0.00013 0.00013 
9e-05 7e-05 7e-05 7e-05 0.00013 0.00013 0.00013 0.00013 0.00017 
7e-05 7e-05 7e-05 0.00011 0.00015 0.00011 0.00015 0.00015 0.00015 
9e-05 9e-05 0.00015 0.00015 0.00015 0.00013 0.00013 0.00013 0.00013 
5e-05 5e-05 5e-05 5e-05 5e-05 5e-05 5e-05 5e-05 5e-05 
5e-05 0.00011 7e-05 7e-05 0.00013 9e-05 0.00017 0.00017 9e-05 
9e-05 0.00015 0.00013 0.00017 0.00013 0.00013 0.00015 0.00015 0.00015 
9e-05 9e-05 9e-05 9e-05 9e-05 0.00011 0.00015 0.00011 0.00011 
0.00011 0.00017 0.00015 0.00015 0.00013 0.00013 0.00013 0.00013 0.00013 
5e-05 5e-05 5e-05 0.00013 0.00011 0.00011 0.00017 0.00015 0.00017 
0.00017 0.00017 0.00011 0.00011 5e-05 5e-05 5e-05 5e-05 5e-05 
5e-05 5e-05 5e-05 5e-05 7e-05 7e-05 7e-05 7e-05 0.00011 
0.00011 9e-05 9e-05 0.00013 7e-05 7e-05 7e-05 7e-05 7e-05 
0.00011 0.00011 0.00011 5e-05 9e-05 0.00015 0.00015 0.00015 0.00015 
5e-05 0.00013 0.00013 0.00013 0.00013 0.00013 0.00011 0.00011 0.00011 
0.00013 0.00013 0.00013 7e-05 7e-05 7e-05 0.00013 0.00017 0.00017 
0.00017 0.00013 0.00017 0.00017 0.00017 5e-05 0.00015 5e-05 5e-05 
7e-05 7e-05 7e-05 7e-05 0.00015 0.00011 0.00015 0.00015 0.00015 
0.00011 0.00011 0.00011 5e-05 5e-05 0.00013 0.00013 0.00015 0.00015 
0.00013 0.00013 7e-05 7e-05 7e-05 0.00017 7e-05 0.00011 0.00011 
0.00011 0.00011 0.00015 0.00015 0.00015 0.00015 0.00015 0.00013 0.00015 
9e-05 9e-05 9e-05 9e-05 5e-05 5e-05 5e-05 5e-05 5e-05 
5e-05 0.00013 0.00013 0.00013 9e-05 9e-05 9e-05 9e-05 9e-05 
0.00015 0.00011 7e-05 7e-05 7e-05 7e-05 7e-05 7e-05 0.00013 
0.00013 0.00013 5e-05 5e-05 5e-05 5e-05 5e-05 5e-05 5e-05 
7e-05 7e-05 7e-05 9e-05 9e-05 9e-05 0.00011 0.00011 7e-05 
7e-05 7e-05 7e-05 0.00013 0.00013 0.00013 0.00015 0.00015 0.00015 
0.00013 0.00013 0.00017 0.00017 0.00017 0.00015 0.00017 0.00017 0.00013 
0.00013 0.00013 0.00013 0.00013 0.00013 0.00015 0.00015 0.00015 9e-05 
9e-05 9e-05 0.00017 7e-05 7e-05 7e-05 7e-05 7e-05 0.00015 
0.00015 0.00015 0.00011 0.00015 0.00011 0.00011 0.00011 0.00011 0.00011 
0.00013 0.00017 5e-05 5e-05 5e-05 5e-05 5e-05 0.00013 0.00013 
0.00011 0.00013 0.00013 0.00013 0.00013 0.00017 0.00017 7e-05 7e-05 
7e-05 7e-05 7e-05 0.00017 0.00017 0.00017 0.00011 0.00011 7e-05 
9e-05 9e-05 9e-05 0.00013 0.00011 0.00013 0.00013 0.00013 0.00013 
0.00011 0.00011 0.00013 0.00013 7e-05 7e-05 0.00015 0.00015 0.00015 
0.00015 0.00015 0.00017 7e-05 7e-05 7e-05 7e-05 7e-05 5e-05 
5e-05 5e-05 5e-05 0.00013 0.00013 0.00013 0.00013 0.00011 0.00011 
0.00011 0.00015 0.00013 0.00013 0.00011 0.00011 0.00011 9e-05 9e-05 
0.00015 0.00015 0.00013 5e-05 5e-05 5e-05 5e-05 5e-05 5e-05 
5e-05 5e-05 0.00013 0.00013 0.00017 9e-05 9e-05 9e-05 0.00013 
0.00013 0.00015 0.00015 0.00015 5e-05 5e-05 5e-05 9e-05 9e-05 
0.00017 0.00017 9e-05 7e-05 7e-05 7e-05 7e-05 7e-05 7e-05 
5e-05 5e-05 5e-05 5e-05 5e-05 7e-05 7e-05 7e-05 0.00015 
0.00015 0.00015 0.00011 0.00013 0.00013 0.00013 0.00013 0.00015 9e-05 
9e-05 9e-05 9e-05 9e-05 0.00013 0.00013 0.00013 0.00013 0.00011 
0.00011 7e-05 7e-05 7e-05 7e-05 7e-05 9e-05 9e-05 9e-05 
9e-05 0.00017 0.00017 0.00013 0.00013 0.00013 0.00011 0.00011 0.00011 
0.00011 0.00011 7e-05 7e-05 7e-05 7e-05 7e-05 0.00015 0.00015 
0.00011 7e-05 0.00015 0.00013 0.00013 0.00013 0.00013 0.00011 0.00011 
0.00011 0.00011 0.00011 0.00011 9e-05 9e-05 9e-05 9e-05 9e-05 
0.00015 0.00011 0.00011 0.00011 0.00011 0.00013 0.00013 0.00013 0.00015 
0.00011 0.00011 0.00011 5e-05 7e-05 0.00013 0.00013 0.00011 0.00011 
0.00011 0.00011 7e-05 7e-05 7e-05 7e-05 0.00013 0.00011 0.00011 
5e-05 5e-05 5e-05 5e-05 5e-05 5e-05 5e-05 5e-05 0.00017 
0.00017 0.00017 0.00013 0.00013 0.00013 0.00013 0.00013 0.00013 0.00013 
0.00013 0.00011 0.00011 0.00011 0.00015 0.00015 5e-05 5e-05 5e-05 
5e-05 0.00017 0.00013 9e-05 9e-05 9e-05 0.00015 0.00011 0.00011 
0.00011 0.00013 9e-05 9e-05 7e-05 7e-05 7e-05 7e-05 7e-05 
0.00015 0.00015 0.00013 0.00013 0.00015 0.00015 0.00013 0.00013 0.00013 
0.00011 0.00011 0.00017 0.00011 0.00011 0.00011 0.00011 0.00013 0.00013 
0.00013 0.00013 0.00013 5e-05 5e-05 5e-05 5e-05 5e-05 5e-05 
5e-05 5e-05 0.00015 9e-05 0.00017 0.00017 0.00011 0.00011 0.00011 
0.00013 9e-05 9e-05 0.00011 0.00011 0.00011 0.00017 0.00011 0.00013 
0.00013 0.00013 0.00011 0.00015 0.00015 5e-05 5e-05 5e-05 0.00017 
0.00017 0.00011 0.00011 0.00011 0.00013 5e-05 5e-05 5e-05 5e-05 
5e-05 5e-05 5e-05 9e-05 9e-05 9e-05 9e-05 5e-05 5e-05 
5e-05 5e-05 9e-05 9e-05 9e-05 9e-05 0.00015 5e-05 5e-05 
5e-05 5e-05 5e-05 5e-05 5e-05 5e-05 0.00013 0.00013 0.00013 
0.00013 0.00013 0.00013 5e-05 5e-05 5e-05 5e-05 5e-05 0.00011 
0.00011 0.00015 0.00015 0.00011 0.00013 0.00013 5e-05 0.00017 0.00015 
0.00011 0.00011 0.00011 0.00011 0.00013 0.00013 0.00013 9e-05 0.00013 
7e-05 7e-05 7e-05 7e-05 7e-05 7e-05 9e-05 0.00011 0.00011 
0.00011 0.00011 0.00013 0.00013 0.00015 0.00015 0.00015 0.00017 0.00017 
7e-05 7e-05 7e-05 0.00013 7e-05 7e-05 7e-05 7e-05 0.00015 
0.00015 0.00015 0.00015 0.00015 0.00015 0.00013 0.00013 0.00017 0.00017 
0.00017 0.00017 0.00017 9e-05 9e-05 9e-05 0.00011 7e-05 7e-05 
7e-05 7e-05 7e-05 7e-05 7e-05 7e-05 7e-05 7e-05 5e-05 
5e-05 5e-05 5e-05 5e-05 5e-05 5e-05 5e-05 9e-05 9e-05 
9e-05 9e-05 0.00015 7e-05 7e-05 7e-05 0.00015 0.00017 0.00017 
0.00017 0.00015 0.00015 0.00013 0.00017 0.00017 0.00011 0.00011 0.00013 
0.00013 9e-05 9e-05 0.00017 0.00017 0.00013 0.00017 0.00017 5e-05 
5e-05 5e-05 5e-05 5e-05 5e-05 5e-05 0.00011 0.00011 5e-05 
5e-05 5e-05 5e-05 5e-05 5e-05 5e-05 5e-05 0.00011 0.00011 
0.00017 0.00017 0.00017 0.00011 0.00011 0.00011 0.00011 0.00011 0.00011 
0.00015 0.00015 0.00011 0.00011 0.00011 0.00013 7e-05 0.00011 0.00011 
0.00011 0.00011 0.00011 0.00015 0.00015 0.00015 0.00013 0.00017 0.00017 
0.00017 0.00011 9e-05 9e-05 0.00011 0.00013 5e-05 5e-05 5e-05 
5e-05 5e-05 5e-05 5e-05 0.00017 9e-05 0.00017 0.00011 0.00011 
0.00011 0.00013 5e-05 5e-05 5e-05 5e-05 5e-05 5e-05 5e-05 
5e-05 5e-05 5e-05 0.00015 0.00015 0.00013 0.00013 0.00013 0.00015 
0.00013 0.00013 0.00013 0.00011 0.00011 0.00011 5e-05 5e-05 5e-05 
7e-05 7e-05 0.00017 0.00017 0.00011 0.00011 0.00011 0.00013 0.00017 
0.00013 0.00013 0.00017 0.00011 0.00011 0.00011 0.00013 0.00013 0.00011 
0.00011 0.00011 0.00011 0.00011 0.00011 0.00017 7e-05 7e-05 7e-05 
7e-05 7e-05 0.00013 0.00013 0.00013 0.00011 0.00011 9e-05 9e-05 
9e-05 0.00015 0.00015 5e-05 5e-05 5e-05 5e-05 9e-05 9e-05 
9e-05 0.00011 0.00013 7e-05 7e-05 9e-05 5e-05 5e-05 5e-05 
5e-05 0.00013 0.00013 5e-05 5e-05 5e-05 5e-05 5e-05 9e-05 
9e-05 0.00015 0.00015 0.00015 5e-05 5e-05 5e-05 5e-05 5e-05 
5e-05 5e-05 5e-05 5e-05 5e-05 0.00013 0.00013 0.00015 0.00015 
0.00013 5e-05 5e-05 5e-05 5e-05 5e-05 5e-05 5e-05 0.00011 
0.00011 0.00015 0.00015 0.00015 0.00011 0.00011 0.00011 0.00013 0.00017 
0.00013 0.00013 7e-05 9e-05 9e-05 9e-05 9e-05 9e-05 9e-05 
0.00013 0.00013 0.00013 0.00013 0.00011 0.00015 0.00015 0.00015 0.00015 
0.00011 0.00011 0.00011 9e-05 9e-05 9e-05 9e-05 0.00017 0.00017 
0.00017 9e-05 9e-05 9e-05 0.00013 0.00013 5e-05 5e-05 0.00011 
0.00011 0.00011 0.00011 0.00011 5e-05 5e-05 5e-05 5e-05 5e-05 
0.00017 0.00017 7e-05 7e-05 9e-05 9e-05 9e-05 9e-05 7e-05 
7e-05 0.00015 0.00011 0.00011 0.00013 7e-05 7e-05 7e-05 0.00015 
0.00015 0.00015 7e-05 7e-05 7e-05 7e-05 0.00011 0.00011 0.00011 
0.00011 0.00011 0.00011 0.00011 7e-05 7e-05 5e-05 5e-05 5e-05 
5e-05 0.00015 0.00015 0.00015 7e-05 9e-05 9e-05 9e-05 0.00011 
0.00017 7e-05 7e-05 7e-05 7e-05 7e-05 7e-05 5e-05 5e-05 
5e-05 5e-05 5e-05 5e-05 0.00015 0.00017 0.00017 0.00017 0.00011 
0.00017 0.00017 0.00017 0.00017 9e-05 0.00013 0.00013 0.00013 9e-05 
9e-05 9e-05 9e-05 9e-05 9e-05 0.00011 0.00011 9e-05 9e-05 
9e-05 9e-05 0.00017 0.00015 0.00013 0.00013 0.00013 0.00017 0.00017 
0.00013 0.00013 0.00013 0.00011 9e-05 9e-05 9e-05 0.00011 0.00011 
0.00011 0.00011 0.00011 0.00011 5e-05 5e-05 5e-05 5e-05 0.00013 
0.00015 0.00015 0.00015 0.00015 0.00015 5e-05 0.00013 0.00013 0.00011 
0.00011 0.00011 0.00011 7e-05 7e-05 0.00011 0.00017 0.00017 0.00017 
0.00013 0.00013 0.00013 0.00013 0.00013 5e-05 5e-05 5e-05 5e-05 
9e-05 9e-05 0.00013 0.00013 0.00013 0.00013 0.00013 0.00013 0.00013 
0.00015 0.00015 9e-05 0.00017 0.00011 0.00011 0.00011 9e-05 0.00011 
9e-05 5e-05 5e-05 5e-05 5e-05 5e-05 5e-05 5e-05 9e-05 
9e-05 0.00015 9e-05 9e-05 9e-05 9e-05 0.00011 0.00017 0.00017 
0.00017 0.00013 0.00015 0.00015 0.00015 0.00015 7e-05 7e-05 7e-05 
7e-05 7e-05 0.00011 0.00011 0.00011 0.00015 0.00015 0.00017 0.00013 
0.00013 0.00013 7e-05 9e-05 9e-05 0.00013 0.00013 9e-05 9e-05 
0.00015 0.00015 0.00011 0.00011 0.00011 0.00013 0.00013 0.00013 0.00013 
0.00017 0.00017 0.00015 0.00015 0.00011 0.00011 0.00011 0.00017 5e-05 
5e-05 5e-05 5e-05 5e-05 5e-05 0.00011 0.00011 0.00013 0.00015 
5e-05 5e-05 5e-05 5e-05 0.00011 0.00013 0.00011 0.00011 0.00013 
0.00013 0.00013 0.00015 0.00015 0.00015 0.00013 0.00013 5e-05 0.00011 
0.00011 0.00017 0.00017 0.00017 9e-05 0.00011 0.00015 0.00015 0.00013 
0.00013 0.00013 0.00017 0.00011 0.00011 9e-05 0.00011 9e-05 9e-05 
9e-05 9e-05 9e-05 9e-05 9e-05 9e-05 0.00011 0.00011 0.00011 
0.00011 0.00013 5e-05 5e-05 5e-05 5e-05 5e-05 5e-05 5e-05 
5e-05 5e-05 5e-05 5e-05 5e-05 5e-05 5e-05 5e-05 5e-05 
5e-05 5e-05 5e-05 0.00015 7e-05 7e-05 7e-05 7e-05 7e-05 
7e-05 7e-05 7e-05 5e-05 5e-05 5e-05 0.00011 0.00011 0.00017 
9e-05 9e-05 9e-05 9e-05 9e-05 0.00013 0.00013 0.00013 0.00013 
0.00013 0.00013 0.00013 0.00013 0.00013 0.00013 7e-05 7e-05 0.00015 
0.00015 9e-05 0.00015 0.00015 0.00017 0.00017 9e-05 9e-05 9e-05 
9e-05 0.00015 5e-05 5e-05 5e-05 5e-05 5e-05 5e-05 5e-05 
0.00011 0.00011 0.00011 0.00011 0.00011 9e-05 0.00015 0.00015 0.00015 
0.00011 0.00011 0.00011 0.00011 0.00011 0.00011 0.00017 0.00015 0.00015 
9e-05 0.00013 0.00013 0.00013 0.00013 0.00013 9e-05 5e-05 5e-05 
5e-05 5e-05 5e-05 5e-05 5e-05 0.00013 9e-05 9e-05 7e-05 
7e-05 7e-05 7e-05 7e-05 7e-05 0.00013 0.00013 0.00015 0.00015 
7e-05 5e-05 5e-05 5e-05 5e-05 5e-05 5e-05 5e-05 5e-05 
5e-05 5e-05 5e-05 5e-05 5e-05 5e-05 5e-05 5e-05 5e-05 
5e-05 5e-05 5e-05 5e-05 5e-05 5e-05 0.00013 0.00013 0.00013 
0.00015 0.00015 0.00015 5e-05 5e-05 5e-05 5e-05 0.00013 0.00013 
0.00015 0.00011 0.00011 0.00017 0.00017 7e-05 9e-05 9e-05 9e-05 
5e-05 5e-05 5e-05 5e-05 5e-05 7e-05 7e-05 5e-05 5e-05 
5e-05 5e-05 5e-05 5e-05 5e-05 5e-05 5e-05 0.00017 0.00017 
0.00017 0.00013 0.00013 0.00013 0.00015 5e-05 5e-05 5e-05 5e-05 
5e-05 5e-05 9e-05 9e-05 0.00011 0.00011 0.00011 0.00011 0.00013 
0.00013 7e-05 7e-05 0.00011 0.00011 0.00011 0.00011 0.00011 0.00015 
0.00015 0.00017 0.00015 0.00015 5e-05 5e-05 5e-05 5e-05 5e-05 
5e-05 9e-05 0.00013 0.00013 0.00011 0.00011 0.00011 0.00011 0.00011 
0.00011 0.00013 0.00013 0.00013 0.00013 0.00017 0.00017 0.00017 0.00017 
0.00011 0.00011 9e-05 9e-05 5e-05 5e-05 5e-05 5e-05 5e-05 
5e-05 5e-05 5e-05 5e-05 5e-05 5e-05 9e-05 9e-05 0.00015 
0.00015 0.00015 0.00015 0.00017 0.00017 0.00017 0.00017 0.00017 9e-05 
9e-05 0.00011 0.00017 0.00017 0.00011 0.00011 9e-05 9e-05 0.00013 
0.00013 0.00015 0.00011 0.00011 0.00011 0.00011 0.00013 0.00013 0.00013 
0.00013 0.00013 0.00015 9e-05 9e-05 9e-05 9e-05 9e-05 9e-05 
9e-05 0.00011 0.00011 0.00011 0.00011 0.00013 0.00015 0.00015 0.00015 
0.00013 0.00013 0.00013 0.00015 0.00013 0.00017 0.00011 0.00011 0.00013 
0.00013 0.00013 9e-05 9e-05 9e-05 0.00017 0.00017 9e-05 9e-05 
9e-05 9e-05 9e-05 0.00015 0.00013 0.00013 0.00017 0.00017 0.00017 
0.00017 0.00015 0.00017 0.00017 9e-05 9e-05 9e-05 0.00017 0.00011 
0.00011 5e-05 5e-05 5e-05 5e-05 5e-05 5e-05 5e-05 5e-05 
5e-05 5e-05 5e-05 5e-05 5e-05 0.00013 0.00013 0.00013 0.00015 
0.00015 0.00017 0.00017 0.00011 0.00015 0.00013 0.00013 0.00013 0.00013 
0.00013 0.00013 9e-05 7e-05 9e-05 9e-05 9e-05 7e-05 7e-05 
5e-05 5e-05 5e-05 5e-05 5e-05 5e-05 5e-05 5e-05 5e-05 
5e-05 5e-05 0.00011 9e-05 9e-05 9e-05 0.00011 0.00011 0.00011 
0.00011 7e-05 7e-05 7e-05 0.00013 0.00013 0.00013 0.00015 0.00013 
0.00013 7e-05 7e-05 7e-05 7e-05 7e-05 0.00013 0.00013 0.00011 
0.00011 0.00015 0.00011 0.00011 0.00011 0.00015 0.00015 0.00017 9e-05 
9e-05 9e-05 0.00013 0.00013 9e-05 9e-05 9e-05 9e-05 9e-05 
0.00017 0.00015 0.00015 0.00015 9e-05 0.00017 0.00013 0.00011 0.00011 
0.00013 0.00013 0.00013 0.00013 0.00017 0.00011 0.00011 0.00011 5e-05 
5e-05 5e-05 5e-05 0.00017 0.00011 0.00011 9e-05 5e-05 5e-05 
5e-05 5e-05 5e-05 5e-05 5e-05 5e-05 5e-05 0.00015 0.00015 
0.00011 7e-05 7e-05 7e-05 0.00015 0.00015 0.00015 0.00017 0.00017 
9e-05 9e-05 9e-05 9e-05 0.00017 0.00017 0.00011 0.00011 0.00011 
0.00011 0.00017 0.00015 0.00015 5e-05 5e-05 5e-05 5e-05 5e-05 
0.00017 9e-05 9e-05 9e-05 0.00011 0.00011 0.00015 0.00015 5e-05 
5e-05 5e-05 5e-05 5e-05 5e-05 5e-05 5e-05 5e-05 5e-05 
0.00013 0.00013 0.00013 0.00013 5e-05 5e-05 5e-05 5e-05 0.00013 
0.00017 0.00017 5e-05 0.00013 0.00011 0.00011 0.00015 0.00015 0.00011 
0.00017 0.00017 0.00011 0.00011 0.00011 0.00013 0.00013 0.00013 0.00015 
0.00015 0.00017 0.00017 0.00013 0.00013 5e-05 5e-05 5e-05 5e-05 
5e-05 5e-05 5e-05 5e-05 0.00011 0.00011 0.00011 0.00013 0.00013 
0.00013 0.00017 9e-05 9e-05 5e-05 5e-05 5e-05 5e-05 5e-05 
5e-05 5e-05 0.00017 0.00017 0.00013 0.00013 0.00015 0.00015 0.00013 
0.00013 0.00013 0.00015 0.00015 0.00015 0.00015 0.00015 0.00013 0.00013 
7e-05 7e-05 7e-05 7e-05 0.00015 0.00011 0.00011 0.00011 0.00015 
0.00015 9e-05 0.00013 0.00013 0.00013 0.00013 9e-05 9e-05 9e-05 
9e-05 9e-05 0.00011 0.00011 5e-05 5e-05 5e-05 5e-05 5e-05 
5e-05 5e-05 5e-05 0.00017 5e-05 9e-05 0.00013 0.00013 0.00013 