# vtk DataFile Version 4.1
vtk output
ASCII
DATASET POLYDATA
FIELD FieldData 3
PORINGUMAS 1 1 double
0.70537739188 
UNIQUE_RADIUS 1 7 double
5e-05 7e-05 9e-05 0.00011 0.00013 0.00015 0.00017 
PARTICLE_TYPE 1 7 double
3 4 8 14 21 20 17 
POINTS 13989 float
0 0 0 0.00034 0 0 0.00017 0.000294449 0 
0.00017 9.81495e-05 9.93311e-05 8.12404e-05 0.000149395 0.000271074 0.00032943 0.000190196 0.000205216 
0.000445797 0.000257381 3.1018e-05 0.000225127 0.000411758 0.000292574 0.000573263 0.000100571 0.000194612 
1.14968e-05 0.000365523 0.000193456 0.000368782 0.00042817 0.000101017 0.000277809 0.000202706 0.000398034 
0.00021119 0.00060531 6.3787e-05 0.000523545 0.000384107 0.000279081 0.000294688 1.43889e-05 0.000332828 
0.000110182 0.000285112 0.000514268 0.000380904 0.000355371 0.000518304 3.87544e-06 0.000577996 0.000249999 
0.000395528 0.000633047 0.000272713 0.000507618 0.00060529 1.76335e-05 0.000253726 5.57295e-05 0.000586231 
0.00017824 0.000669516 0.00047632 0.000369425 0.000880386 0.000104956 0.00069477 0.000654365 0.000272518 
0.000750363 0.000399964 5.39097e-05 0.000653999 0.000473243 0.000557356 0.000485953 0.000875609 0.000424328 
0.000694219 0.000864973 5.60199e-06 6.44324e-05 0.000462495 0.000434006 0.000211223 0.000449594 0.000566578 
0.000148076 0.000716399 0.000242884 0.000381074 0.000543733 0.000451078 0.000277707 0.000820515 0.000318505 
0.0002468 0.000301502 0.000758126 0.000531548 0.000168383 0.000698143 2.17117e-05 0.000486735 0.000687246 
0.000199834 0.000965466 0.000432193 0.000435043 0.000664519 0.000631327 0.000733849 0.00076232 0.000549679 
0.000587634 0.00105805 0.000208976 0.000771353 0.000241694 0.000370239 0.000625868 0.00067067 0.00069089 
0.000829813 0.000608351 0.00046551 0.0005652 0.000815932 0.000642865 0.000721657 0.000867315 0.000379893 
0.00044369 0.000132939 0.000394018 0.000800101 0.00016186 0.000145739 0.000260012 0.000577596 0.000802818 
0.000290319 0.000878613 0.000659941 0.000553824 0.000546793 0.000830404 0.000643808 0.000830342 0.000869168 
0.000709868 0.00104346 0.000415001 0.000837338 0.000893722 0.000244539 0.000422624 0.000793655 0.000783543 
0.000482064 0.000906932 0.000709252 0.000728683 0.000626537 0.000775041 0.000658718 0.000920032 0.000647056 
0.000984605 0.000272626 0.000191445 0.00101283 0.000571241 0.000185735 0.000808383 0.00043024 0.000834333 
0.000923288 0.000726701 0.000752766 0.000964878 0.000436566 0.000490956 0.000825322 0.000261966 0.000623767 
0.0010231 0.000194766 0.000415177 0.00115555 0.000374899 0.000325302 0.000987812 0.000690086 0.000438024 
0.00103909 0.000494732 0.000733257 0.000446132 0.0011343 0.000641337 0.000260495 0.000835905 0.000955384 
0.000132912 0.000738401 0.000722897 8.007e-05 0.00087889 0.000595169 0.00019403 0.00107312 0.000623964 
0.00026127 0.00104502 0.000800883 0.000773185 0.00111319 0.000731838 0.000616365 1.18686e-05 0.000456669 
0.00105663 0.000259746 0.000687718 0.00117178 0.000608437 0.000568748 0.0010178 0.000565783 0.000961508 
0.000599717 0.00129934 0.000386831 0.00097127 0.000966517 0.000479407 2.00057e-05 0.000143645 0.000712902 
0.00030956 4.85634e-05 0.000860514 9.87098e-05 0.000438723 0.000952135 0.00037735 0.000421738 0.00097469 
0.0012245 0.000358241 7.51648e-05 0.00101064 0.000862519 5.3249e-05 0.00119283 0.000798775 0.000320743 
6.31002e-05 9.3261e-05 0.000483017 8.14252e-06 0.000340684 0.000351481 0.000334799 0.00115644 0.000278207 
0.000844947 0.00116644 0.000229987 0.000625824 0.00139433 0.00069129 0.000638804 0.00127109 0.000111016 
0.0010735 0.00104249 0.000230053 3.21198e-05 0.000857158 0.000444078 5.22705e-06 0.000740991 0.000626512 
5.60286e-05 0.00103172 0.000554381 0.000112953 0.000894651 0.000750958 0.00080689 0.00148138 0.000187983 
0.00110076 0.00126872 0.000392771 0.000101621 0.000170193 0.000958328 0.00120215 0.00072345 9.30602e-05 
0.000871267 0.0010549 1.91191e-05 0.00122041 0.000946785 0.000133842 0.000529206 0.0014542 0.000164467 
0.000856191 0.0013929 0.000449021 0.00102774 0.00132028 0.000127421 0.000361058 0.00143044 0.000554927 
0.000549269 0.00122846 0.000929255 0.000691824 0.00159254 0.000475987 0.000925706 0.00139264 0.000699555 
0.00105384 0.00117164 0.000651178 0.00124005 0.001029 0.000431942 0.00100904 0.00153266 0.000374817 
0.00120753 0.00119467 0.000144745 1.80534e-05 0.00106529 0.000890522 0.000927542 3.08571e-05 0.000268202 
0.000769301 0.00140161 0.000931627 0.000775812 0.00162547 0.000741056 0.00101439 0.0012033 0.000885788 
0.00114627 0.00150648 0.000569965 0.000750196 0.00106063 8.9183e-05 0.000988889 0.00105689 9.50204e-05 
0.00115125 0.00147956 0.000215584 0.0013512 0.00117464 0.000310144 0.00126694 0.00117248 0.000596537 
0.000928801 0.000946384 0.000956994 0.00103849 0.00147033 0.000966471 0.00120539 0.0010188 0.000797024 
0.000903013 0.000195981 2.05609e-06 0.000830973 0.000644033 1.47634e-05 0.00138264 0.00106326 0.00012304 
0.00121472 0.00138166 2.90689e-05 0.00109098 0.000570491 0.000412446 0.000992153 0.000614162 0.000578796 
0.00115816 0.000471257 0.000453006 0.00112534 0.000439569 0.000610302 0.00103516 0.000724204 0.000587001 
0.00111409 0.000765109 0.00050148 0.00110297 0.000641417 0.000731774 0.00138841 0.00131982 0.00014909 
0.00136385 0.00132462 0.000470597 0.00144246 0.00109088 0.000491959 0.000376206 0.000464168 0.000686057 
7.17268e-05 0.000613969 0.000859611 0.000200379 0.000606386 0.000991537 0.00040639 0.000648848 0.000918993 
0.00125921 0.00147466 0.000383872 1.98047e-05 0.00123816 0.000621245 0.000252117 0.00127973 0.000850166 
7.16873e-05 0.000843836 0.000109001 0.000441188 0.00115877 1.92168e-05 0.00132215 0.000409751 0.000494504 
4.48677e-05 0.00109183 0.000236192 0.00106026 0.0017178 0.000764765 0.00128888 0.00136869 0.000795079 
0.000790861 2.57878e-05 0.000648912 0.00118159 0.000740323 0.000859979 0.00161758 0.0011774 0.000223911 
0.00120863 0.00172533 0.000336861 0.00150813 0.0015091 0.000317134 0.00125187 0.000140577 0.000526218 
0.00128041 0.000405789 0.000771347 0.00135704 0.000555655 0.000258084 0.00107419 0.000337362 0.000914141 
0.00125602 0.000550222 0.000986159 0.00124527 0.000148593 0.000786011 0.00145203 0.000265402 0.000635555 
0.00140228 0.000588876 0.000632683 0.00151574 0.000588155 0.000888663 0.000560467 0.00146745 0.000910337 
0.000780032 0.00118747 0.000980907 0.000842727 0.00160819 0.000949919 0.00134734 0.00162792 4.21237e-05 
0.00140425 0.0016553 0.000605988 0.00163285 0.00128932 0.000544598 0.00109607 6.05218e-05 4.65724e-05 
0.000915901 0.00131381 0.000988193 0.0011484 0.00130391 0.000951505 0.000882034 0.0015162 0.000850637 
0.00109445 0.00146955 0.00077446 0.000972901 0.00165908 0.000957948 0.00117752 0.00155105 0.000847488 
0.00068427 0.000325542 0.000717568 0.00062517 0.000396569 0.000761537 0.000853559 0.000489075 0.000648598 
0.000796716 0.000571319 0.000693051 0.00071543 0.000598064 0.000890859 0.000920896 0.000378606 0.000677252 
0.000895369 0.000262962 0.000767615 0.000854521 0.000612698 0.000902012 0.00094349 0.000402797 0.000979222 
0.00103949 0.000760999 0.000999192 0.00112255 0.00077271 0.000671657 0.00114357 0.000901286 0.000972433 
0.00128785 0.000714259 0.00069256 0.0013346 0.000712164 0.000985659 0.00103644 0.00151829 3.19593e-05 
0.00130285 0.000886049 0.000971609 0.000885811 0.000159856 0.000938722 2.64913e-05 0.000767342 0.000865154 
0.000650151 0.000622264 0.000988598 0.000118401 0.00138082 0.000352305 0.000104766 0.00153113 0.000717943 
0.00134293 0.000624562 0.000466537 0.00132648 0.000734861 0.000559583 0.00149167 0.000436732 0.000597154 
0.0014206 0.000739893 0.000728903 0.000162145 0.00104259 9.43011e-06 0.00156546 0.000449005 0.000411671 
0.00164631 0.000383576 0.00071231 0.00063115 0.00109623 1.75375e-05 5.78048e-06 0.00134478 0.000901995 
0.000370281 0.00150655 0.000803366 0.000593075 0.000337524 0.000885775 0.000874204 0.00167734 0.000345042 
0.000920329 0.0015787 0.000548054 0.000522308 0.00165449 0.000691117 0.000631948 0.00167115 0.000952757 
0.00085123 0.00180377 0.000567496 0.00148418 0.000293838 0.000830895 0.00161951 0.000269182 0.000526309 
0.0015974 0.000564078 0.000596436 0.0013978 0.00081669 0.000130834 0.00049173 0.000175928 0.000995393 
0.000383612 0.00172627 0.00089899 0.000662566 0.00185722 0.00077376 0.00145609 0.00078102 0.000414425 
0.000578552 0.00170311 0.000221144 0.000961481 0.0017567 0.000136034 0.000976732 0.00191312 0.000367769 
0.00120354 0.00188774 8.46797e-05 0.00148476 0.00179964 0.000246146 0.000146435 0.00145044 0.000940098 
0.000192035 0.00155835 0.000496036 0.000323786 0.00161552 0.000667858 0.000244073 0.00158318 0.000906317 
2.1747e-06 0.00155132 0.000977689 0.000995873 0.00203457 0.000138676 0.00120386 0.00202373 0.000306283 
0.00145232 0.0019073 1.17135e-05 0.000842435 6.9528e-06 2.65262e-05 0.000194712 0.00129682 5.31049e-05 
0.00120047 0.00210698 0.000102673 0.00158869 0.00141936 1.65035e-05 0.00165474 0.000859705 0.00023346 
0.00181374 0.00141434 0.00031211 0.00181698 0.000500304 0.000523508 0.00162538 0.000791643 0.000667366 
0.000131288 0.00162298 0.000916088 0.000161544 0.00155858 0.000989886 3.28041e-05 0.00177024 0.000884226 
0.00076311 0.00117261 2.58676e-05 0.000806498 0.00119233 0.000445049 0.000931478 0.00120266 3.09879e-05 
0.000196107 0.000856944 0.000238415 0.000183751 0.000953112 0.000197886 0.00022742 0.00104064 0.000155497 
0.000294543 0.00108701 9.50177e-05 0.000508014 0.000768044 0.000233689 0.00055121 0.000760443 0.00013607 
0.000558863 0.000880537 0.000216819 0.00136249 0.000249955 0.000293411 0.00126518 0.00194079 0.000566593 
0.00120864 6.61807e-05 0.000280868 0.00134386 0.000127604 8.7783e-05 0.00149978 0.000129015 0.000448732 
0.00147984 0.00037088 0.000122511 0.00105451 3.9067e-05 0.000782039 0.00114165 0.000138529 0.000979821 
0.00142588 5.67709e-05 0.00070028 0.00134257 0.000239379 0.000961201 0.000817281 0.00178206 0.000910927 
0.00168094 0.00010649 0.000691713 0.00166604 0.000322528 0.000984861 0.00182665 0.000571689 0.00081473 
[...]
POINT_DATA 13989
SCALARS RADIUS double
LOOKUP_TABLE default
0.00017 0.00017 0.00017 5e-05 0.00015 0.00011 0.00011 0.00015 0.00015 
9e-05 9e-05 9e-05 0.00015 0.00015 0.00011 0.00013 0.00013 0.00013 
0.00013 0.00015 0.00015 0.00017 0.00017 0.00017 0.00017 0.00017 0.00017 
0.00017 7e-05 7e-05 7e-05 7e-05 7e-05 0.00015 0.00017 0.00015 
0.00013 0.00013 0.00013 0.00013 0.00015 7e-05 7e-05 7e-05 7e-05 
9e-05 9e-05 0.00013 0.00013 0.00013 0.00017 0.00011 0.00011 7e-05 
7e-05 7e-05 7e-05 0.00013 0.00017 0.00015 0.00015 0.00015 0.00011 
0.00011 0.00011 0.00011 0.00011 0.00017 0.00017 9e-05 9e-05 9e-05 
9e-05 0.00017 0.00013 0.00013 0.00013 0.00013 0.00017 0.00017 0.00013 
0.00013 0.00013 0.00013 0.00015 0.00015 0.00015 7e-05 7e-05 0.00015 
0.00015 0.00015 0.00011 0.00011 7e-05 7e-05 7e-05 7e-05 0.00017 
0.00017 0.00013 9e-05 9e-05 9e-05 0.00011 0.00011 0.00011 0.00015 
0.00015 0.00015 0.00015 0.00011 0.00011 0.00011 0.00011 0.00017 0.00013 
0.00013 0.00013 0.00013 0.00013 5e-05 5e-05 0.00011 0.00011 0.00011 
0.00015 0.00015 0.00015 9e-05 9e-05 0.00011 0.00011 5e-05 5e-05 
5e-05 5e-05 5e-05 5e-05 5e-05 0.00011 0.00011 0.00011 7e-05 
7e-05 7e-05 7e-05 9e-05 0.00015 0.00015 0.00013 0.00013 0.00013 
0.00015 0.00017 0.00017 0.00013 0.00013 0.00017 0.00017 0.00017 0.00015 
0.00015 0.00015 0.00011 0.00011 0.00011 0.00011 0.00011 0.00017 9e-05 
9e-05 9e-05 0.00017 0.00017 0.00017 0.00015 5e-05 5e-05 5e-05 
5e-05 5e-05 5e-05 5e-05 5e-05 5e-05 5e-05 5e-05 5e-05 
5e-05 5e-05 5e-05 7e-05 7e-05 7e-05 7e-05 7e-05 0.00011 
9e-05 0.00015 9e-05 7e-05 0.00017 0.00017 7e-05 7e-05 7e-05 
7e-05 0.00011 0.00013 0.00013 7e-05 0.00011 0.00011 9e-05 9e-05 
9e-05 0.00013 0.00013 0.00013 9e-05 9e-05 9e-05 0.00013 0.00013 
0.00013 0.00013 0.00013 0.00015 0.00015 0.00013 0.00013 0.00013 7e-05 
7e-05 7e-05 7e-05 0.00011 0.00013 0.00013 0.00013 0.00011 0.00015 
9e-05 0.00015 0.00015 0.00015 0.00015 0.00015 5e-05 5e-05 0.00013 
7e-05 7e-05 7e-05 5e-05 5e-05 5e-05 5e-05 5e-05 5e-05 
5e-05 0.00013 0.00015 0.00011 0.00011 0.00011 0.00011 0.00011 0.00011 
0.00011 0.00011 9e-05 0.00015 0.00015 0.00015 5e-05 5e-05 5e-05 
5e-05 5e-05 0.00013 0.00015 0.00015 5e-05 5e-05 5e-05 5e-05 
5e-05 5e-05 5e-05 0.00011 5e-05 5e-05 5e-05 0.00017 0.00015 
7e-05 0.00011 0.00011 0.00011 0.00011 0.00011 0.00011 0.00015 0.00015 
0.00011 0.00011 0.00011 7e-05 5e-05 5e-05 5e-05 5e-05 5e-05 
5e-05 5e-05 0.00011 0.00015 0.00015 0.00015 0.00015 0.00015 0.00015 
5e-05 5e-05 5e-05 5e-05 5e-05 5e-05 5e-05 5e-05 5e-05 
5e-05 0.00015 0.00015 0.00015 0.00011 0.00011 0.00011 0.00011 9e-05 
0.00017 0.00015 0.00015 0.00015 0.00013 0.00011 0.00011 0.00011 0.00011 
9e-05 0.00015 0.00015 5e-05 0.00017 0.00017 7e-05 0.00015 0.00011 
0.00011 0.00011 0.00011 7e-05 7e-05 0.00013 0.00013 0.00017 0.00011 
0.00013 0.00013 0.00013 5e-05 5e-05 0.00011 0.00011 5e-05 5e-05 
5e-05 5e-05 5e-05 5e-05 5e-05 5e-05 5e-05 0.00017 9e-05 
9e-05 9e-05 7e-05 7e-05 7e-05 7e-05 7e-05 7e-05 0.00011 
0.00011 0.00011 0.00011 0.00015 0.00015 0.00013 0.00013 0.00013 0.00015 
0.00015 0.00015 0.00015 0.00013 0.00013 0.00013 0.00013 0.00015 0.00015 
0.00015 0.00013 0.00013 0.00013 0.00011 0.00017 0.00015 0.00011 0.00011 
0.00011 0.00011 7e-05 5e-05 5e-05 5e-05 5e-05 5e-05 5e-05 
5e-05 0.00017 0.00017 9e-05 0.00013 0.00015 0.00015 0.00015 9e-05 
9e-05 9e-05 9e-05 9e-05 0.00011 0.00011 0.00011 0.00015 0.00015 
0.00015 5e-05 5e-05 5e-05 5e-05 0.00013 0.00017 0.00017 0.00011 
0.00011 0.00011 0.00013 9e-05 9e-05 9e-05 9e-05 5e-05 5e-05 
5e-05 5e-05 5e-05 5e-05 0.00017 0.00017 0.00017 0.00015 0.00015 
5e-05 5e-05 5e-05 5e-05 5e-05 5e-05 0.00013 0.00013 0.00011 
0.00015 0.00015 0.00015 0.00015 9e-05 9e-05 0.00017 0.00011 0.00011 
0.00011 0.00011 0.00013 0.00013 5e-05 5e-05 5e-05 5e-05 0.00015 
0.00015 0.00015 0.00013 0.00017 0.00017 9e-05 9e-05 9e-05 9e-05 
0.00015 0.00015 0.00015 9e-05 9e-05 9e-05 0.00013 0.00013 0.00013 
5e-05 5e-05 0.00017 0.00017 0.00017 0.00017 0.00013 0.00017 0.00017 
0.00017 0.00013 0.00013 0.00013 0.00013 0.00013 0.00011 0.00011 0.00011 
0.00011 0.00015 0.00013 0.00013 0.00013 0.00017 0.00017 0.00017 0.00013 
0.00011 0.00011 0.00011 0.00011 0.00011 0.00011 0.00017 5e-05 5e-05 
5e-05 5e-05 5e-05 5e-05 0.00015 0.00011 0.00011 0.00011 0.00017 
0.00013 7e-05 7e-05 7e-05 7e-05 5e-05 5e-05 5e-05 0.00013 
9e-05 9e-05 9e-05 0.00017 0.00013 0.00013 0.00015 0.00015 7e-05 
7e-05 7e-05 7e-05 5e-05 5e-05 5e-05 5e-05 5e-05 5e-05 
5e-05 5e-05 5e-05 5e-05 5e-05 5e-05 0.00013 0.00013 0.00013 
7e-05 7e-05 0.00013 0.00017 0.00017 0.00011 9e-05 9e-05 9e-05 
9e-05 0.00015 0.00015 0.00013 0.00013 0.00013 0.00015 0.00013 0.00013 
0.00013 0.00013 7e-05 7e-05 7e-05 7e-05 7e-05 7e-05 5e-05 
5e-05 5e-05 5e-05 5e-05 5e-05 5e-05 5e-05 0.00015 9e-05 
0.00017 0.00015 0.00011 0.00017 9e-05 7e-05 7e-05 7e-05 7e-05 
0.00017 9e-05 9e-05 0.00013 0.00015 0.00015 0.00015 0.00015 0.00015 
0.00017 0.00017 0.00017 9e-05 0.00015 0.00015 0.00015 0.00015 0.00015 
0.00015 7e-05 7e-05 7e-05 0.00011 0.00013 0.00013 0.00013 5e-05 
5e-05 5e-05 0.00017 0.00017 0.00017 0.00011 0.00013 0.00013 0.00017 
0.00011 0.00011 0.00011 0.00013 0.00013 0.00013 0.00013 0.00011 0.00011 
0.00011 0.00017 0.00017 0.00017 0.00017 0.00011 0.00017 0.00017 0.00015 
7e-05 7e-05 7e-05 7e-05 7e-05 7e-05 9e-05 9e-05 9e-05 
7e-05 9e-05 9e-05 5e-05 5e-05 5e-05 5e-05 5e-05 5e-05 
5e-05 5e-05 0.00017 0.00017 0.00017 0.00015 0.00015 0.00015 0.00015 
0.00015 0.00017 0.00017 9e-05 9e-05 9e-05 7e-05 7e-05 7e-05 
7e-05 7e-05 0.00013 0.00015 0.00015 9e-05 9e-05 9e-05 5e-05 
0.00013 9e-05 9e-05 9e-05 9e-05 9e-05 9e-05 9e-05 0.00013 
0.00013 0.00013 0.00013 9e-05 9e-05 9e-05 9e-05 0.00017 0.00017 
9e-05 9e-05 9e-05 0.00017 0.00017 0.00015 0.00015 0.00013 0.00013 
5e-05 5e-05 0.00017 0.00017 0.00015 0.00015 0.00015 0.00017 0.00013 
0.00015 0.00015 0.00015 9e-05 0.00013 0.00013 0.00017 0.00015 0.00015 
0.00015 0.00013 9e-05 9e-05 9e-05 9e-05 0.00011 0.00011 0.00011 
5e-05 5e-05 5e-05 5e-05 5e-05 5e-05 7e-05 7e-05 7e-05 
7e-05 7e-05 7e-05 5e-05 0.00011 0.00011 0.00015 0.00013 7e-05 
9e-05 9e-05 7e-05 7e-05 7e-05 7e-05 7e-05 0.00011 0.00011 
0.00011 0.00017 0.00017 9e-05 0.00013 0.00013 0.00017 0.00017 0.00011 
0.00015 7e-05 7e-05 7e-05 7e-05 7e-05 7e-05 0.00015 0.00015 
0.00015 7e-05 7e-05 7e-05 7e-05 7e-05 7e-05 7e-05 0.00017 
0.00017 0.00015 0.00015 0.00015 0.00015 0.00015 0.00015 5e-05 5e-05 
5e-05 5e-05 5e-05 5e-05 5e-05 5e-05 9e-05 9e-05 9e-05 
9e-05 0.00015 0.00015 0.00015 0.00017 5e-05 5e-05 5e-05 5e-05 
5e-05 5e-05 5e-05 5e-05 5e-05 0.00011 0.00011 0.00013 0.00011 
0.00011 5e-05 0.00017 0.00017 0.00015 9e-05 9e-05 9e-05 7e-05 
7e-05 0.00017 0.00015 0.00015 0.00015 7e-05 0.00011 0.00015 0.00015 
0.00015 0.00011 0.00011 9e-05 9e-05 9e-05 9e-05 9e-05 0.00015 
0.00015 0.00015 0.00013 0.00013 5e-05 5e-05 5e-05 5e-05 0.00011 
0.00011 0.00011 0.00011 0.00017 0.00017 0.00011 0.00011 0.00011 0.00011 
0.00013 0.00013 0.00013 0.00013 0.00015 0.00015 9e-05 9e-05 9e-05 
0.00015 0.00015 0.00015 0.00015 9e-05 0.00013 0.00013 0.00013 0.00013 
0.00011 0.00011 0.00011 0.00011 0.00017 0.00011 0.00015 0.00017 0.00017 
0.00011 0.00011 0.00011 0.00011 0.00011 0.00011 0.00011 0.00011 0.00011 
0.00013 0.00017 0.00017 0.00015 0.00017 0.00017 9e-05 9e-05 9e-05 
0.00015 0.00015 0.00015 0.00013 0.00013 0.00013 0.00013 0.00015 0.00015 
0.00015 0.00015 0.00015 0.00017 0.00011 0.00017 5e-05 5e-05 5e-05 
5e-05 5e-05 5e-05 5e-05 5e-05 5e-05 5e-05 5e-05 5e-05 
5e-05 5e-05 5e-05 5e-05 7e-05 0.00013 0.00013 9e-05 0.00017 
5e-05 5e-05 5e-05 5e-05 0.00013 0.00013 0.00013 7e-05 5e-05 
5e-05 9e-05 9e-05 9e-05 9e-05 0.00017 0.00017 0.00017 0.00013 
0.00015 0.00013 0.00011 0.00011 0.00013 0.00013 0.00013 0.00013 7e-05 
7e-05 0.00013 0.00017 0.00015 0.00017 0.00017 0.00017 0.00013 0.00013 
0.00013 0.00013 0.00015 0.00017 0.00017 5e-05 5e-05 5e-05 9e-05 
7e-05 7e-05 5e-05 5e-05 5e-05 5e-05 5e-05 5e-05 5e-05 
0.00015 0.00015 7e-05 7e-05 7e-05 7e-05 7e-05 5e-05 5e-05 
5e-05 5e-05 5e-05 5e-05 5e-05 5e-05 5e-05 5e-05 0.00015 
0.00011 9e-05 9e-05 9e-05 9e-05 9e-05 9e-05 0.00013 0.00013 
0.00015 0.00015 7e-05 7e-05 0.00015 0.00011 0.00011 0.00017 7e-05 
7e-05 7e-05 0.00015 0.00015 9e-05 5e-05 5e-05 5e-05 5e-05 
5e-05 0.00013 9e-05 9e-05 9e-05 9e-05 7e-05 5e-05 5e-05 
5e-05 5e-05 5e-05 5e-05 5e-05 5e-05 5e-05 5e-05 7e-05 
7e-05 7e-05 9e-05 9e-05 0.00015 0.00015 0.00015 0.00011 0.00013 
0.00013 0.00013 0.00013 9e-05 0.00015 0.00015 0.00011 0.00011 9e-05 
0.00015 9e-05 9e-05 9e-05 9e-05 9e-05 5e-05 5e-05 0.00013 
0.00011 0.00011 0.00011 0.00015 0.00013 0.00013 0.00013 0.00017 0.00017 
0.00013 0.00013 0.00013 5e-05 5e-05 5e-05 5e-05 5e-05 5e-05 
5e-05 5e-05 5e-05 0.00013 0.00011 0.00011 0.00011 0.00015 7e-05 
7e-05 7e-05 7e-05 0.00017 0.00017 0.00017 0.00011 0.00011 0.00011 
0.00011 0.00011 0.00017 0.00017 0.00017 0.00013 0.00013 0.00013 0.00013 
0.00013 0.00013 0.00011 0.00011 0.00013 7e-05 0.00015 0.00017 7e-05 
7e-05 7e-05 5e-05 0.00013 0.00013 0.00013 0.00011 0.00011 0.00011 
0.00011 0.00011 0.00011 0.00011 9e-05 9e-05 0.00011 0.00011 5e-05 
5e-05 5e-05 5e-05 5e-05 5e-05 5e-05 0.00013 0.00013 0.00011 
0.00011 0.00011 0.00017 0.00015 0.00015 0.00013 0.00013 9e-05 5e-05 
5e-05 5e-05 0.00011 0.00011 0.00011 0.00013 9e-05 0.00015 0.00011 
0.00013 0.00013 0.00015 0.00015 0.00015 7e-05 7e-05 7e-05 7e-05 
7e-05 7e-05 7e-05 7e-05 7e-05 7e-05 5e-05 5e-05 0.00011 
7e-05 0.00013 0.00013 0.00013 0.00013 9e-05 0.00013 0.00013 0.00017 
9e-05 0.00015 0.00011 0.00017 0.00017 7e-05 7e-05 7e-05 7e-05 
0.00013 0.00013 0.00011 0.00011 0.00011 0.00011 0.00011 0.00011 7e-05 
7e-05 7e-05 7e-05 7e-05 0.00015 0.00015 7e-05 7e-05 7e-05 
7e-05 0.00013 0.00013 7e-05 7e-05 0.00017 7e-05 7e-05 0.00015 
0.00015 0.00013 0.00011 0.00011 0.00011 0.00011 0.00013 0.00013 0.00017 
0.00017 5e-05 5e-05 9e-05 9e-05 9e-05 9e-05 7e-05 7e-05 
7e-05 7e-05 0.00013 0.00013 0.00013 0.00013 0.00013 0.00013 0.00013 
0.00015 0.00013 5e-05 0.00017 0.00017 0.00013 7e-05 7e-05 0.00013 
0.00013 0.00017 0.00017 0.00017 0.00017 0.00013 0.00013 0.00015 0.00015 
9e-05 0.00011 0.00011 0.00011 0.00017 0.00017 0.00017 5e-05 5e-05 
9e-05 9e-05 0.00013 0.00013 0.00013 0.00013 0.00017 7e-05 7e-05 
7e-05 0.00015 0.00013 0.00013 0.00013 0.00013 9e-05 9e-05 9e-05 
0.00017 0.00017 0.00017 0.00017 0.00011 0.00011 0.00011 0.00011 0.00013 
5e-05 5e-05 0.00011 0.00011 0.00011 0.00011 0.00011 0.00015 0.00015 
0.00011 0.00011 0.00011 0.00011 0.00011 0.00013 0.00013 0.00015 0.00011 
0.00011 0.00013 5e-05 5e-05 5e-05 5e-05 5e-05 5e-05 5e-05 
5e-05 5e-05 5e-05 0.00017 0.00017 0.00017 0.00011 0.00011 0.00013 
0.00013 9e-05 0.00017 5e-05 0.00015 9e-05 9e-05 9e-05 0.00013 
5e-05 5e-05 5e-05 9e-05 0.00011 0.00011 5e-05 9e-05 9e-05 
9e-05 0.00011 0.00011 0.00011 0.00011 0.00013 5e-05 5e-05 5e-05 
5e-05 5e-05 5e-05 0.00011 0.00011 0.00011 0.00011 0.00011 0.00011 
0.00011 0.00017 0.00015 0.00015 0.00013 0.00013 0.00013 0.00015 0.00015 
0.00011 0.00011 0.00017 0.00017 0.00017 0.00017 0.00017 7e-05 7e-05 
7e-05 7e-05 0.00015 5e-05 5e-05 5e-05 5e-05 5e-05 5e-05 
5e-05 5e-05 5e-05 0.00015 0.00011 0.00013 0.00013 0.00013 0.00013 
0.00011 0.00011 0.00015 0.00015 0.00015 0.00011 0.00017 9e-05 9e-05 
9e-05 9e-05 7e-05 0.00015 0.00015 0.00015 0.00013 0.00013 0.00013 
0.00013 0.00017 0.00015 0.00015 0.00011 0.00011 0.00011 0.00011 0.00017 
0.00017 0.00017 0.00011 0.00011 0.00015 0.00015 0.00015 7e-05 7e-05 
7e-05 7e-05 7e-05 0.00017 0.00017 0.00017 0.00015 0.00011 9e-05 
9e-05 9e-05 0.00017 0.00017 0.00015 0.00015 0.00015 0.00015 0.00013 
0.00013 0.00013 0.00013 7e-05 7e-05 7e-05 7e-05 7e-05 7e-05 
7e-05 7e-05 7e-05 5e-05 5e-05 5e-05 5e-05 5e-05 0.00015 
0.00015 0.00013 0.00015 0.00015 0.00015 0.00017 0.00017 0.00011 0.00011 
9e-05 9e-05 9e-05 0.00013 0.00013 0.00013 5e-05 5e-05 5e-05 
5e-05 5e-05 5e-05 5e-05 5e-05 0.00015 0.00011 0.00011 5e-05 
5e-05 5e-05 5e-05 5e-05 0.00011 0.00011 0.00011 0.00017 0.00017 
0.00011 0.00011 0.00011 0.00017 0.00011 0.00011 0.00011 0.00011 0.00017 
7e-05 7e-05 0.00015 0.00011 0.00013 0.00013 0.00013 0.00013 0.00013 
0.00017 0.00017 0.00017 9e-05 9e-05 9e-05 9e-05 0.00015 0.00015 
7e-05 7e-05 9e-05 9e-05 0.00015 0.00015 0.00013 0.00013 0.00013 
5e-05 5e-05 0.00013 0.00017 0.00017 0.00017 0.00013 0.00013 0.00015 
0.00011 0.00011 0.00013 0.00013 5e-05 5e-05 5e-05 5e-05 0.00013 
0.00013 0.00015 0.00011 0.00011 5e-05 5e-05 5e-05 5e-05 5e-05 
5e-05 5e-05 7e-05 7e-05 7e-05 0.00011 0.00011 0.00011 0.00011 
0.00011 0.00011 0.00017 0.00017 0.00013 9e-05 0.00013 0.00013 0.00013 
0.00013 0.00011 0.00011 5e-05 5e-05 5e-05 5e-05 5e-05 5e-05 
5e-05 0.00013 0.00013 0.00013 0.00013 0.00013 7e-05 7e-05 0.00013 
0.00013 9e-05 9e-05 9e-05 9e-05 9e-05 5e-05 5e-05 5e-05 
5e-05 9e-05 9e-05 9e-05 9e-05 0.00017 7e-05 7e-05 7e-05 
7e-05 7e-05 7e-05 7e-05 7e-05 7e-05 0.00015 0.00015 0.00015 
0.00013 5e-05 5e-05 5e-05 5e-05 5e-05 5e-05 5e-05 5e-05 
9e-05 0.00013 5e-05 5e-05 5e-05 5e-05 5e-05 0.00013 0.00013 
0.00013 0.00013 0.00013 7e-05 0.00015 0.00013 0.00013 0.00013 5e-05 
5e-05 5e-05 5e-05 0.00017 0.00017 0.00015 9e-05 9e-05 0.00015 
0.00015 9e-05 0.00013 0.00015 0.00017 0.00017 0.00013 0.00013 0.00011 
0.00011 0.00015 0.00015 0.00015 0.00015 0.00013 0.00013 0.00011 0.00011 
0.00011 9e-05 7e-05 7e-05 7e-05 7e-05 7e-05 0.00015 0.00015 
0.00015 0.00015 0.00013 5e-05 5e-05 5e-05 5e-05 5e-05 5e-05 
0.00015 0.00015 0.00015 0.00015 5e-05 0.00017 0.00017 0.00013 0.00013 
0.00013 0.00013 0.00013 0.00011 0.00011 0.00011 0.00013 9e-05 0.00015 
7e-05 7e-05 7e-05 7e-05 0.00013 0.00013 0.00013 7e-05 7e-05 
7e-05 7e-05 7e-05 0.00013 0.00013 0.00013 0.00013 7e-05 0.00015 
7e-05 7e-05 7e-05 7e-05 7e-05 7e-05 0.00011 5e-05 5e-05 
5e-05 5e-05 5e-05 0.00013 5e-05 5e-05 5e-05 5e-05 5e-05 
5e-05 0.00017 0.00017 7e-05 7e-05 7e-05 7e-05 9e-05 9e-05 
9e-05 0.00011 0.00017 0.00017 0.00017 0.00015 0.00013 0.00013 0.00015 
0.00015 0.00013 0.00013 7e-05 7e-05 7e-05 0.00017 0.00017 0.00017 
0.00017 5e-05 5e-05 5e-05 5e-05 5e-05 5e-05 0.00013 0.00017 
0.00017 0.00017 0.00017 0.00015 0.00017 9e-05 9e-05 9e-05 9e-05 
9e-05 0.00011 0.00011 0.00011 0.00011 0.00011 9e-05 0.00015 0.00015 
9e-05 9e-05 9e-05 0.00011 0.00011 0.00011 0.00011 0.00011 0.00013 
0.00017 0.00017 0.00017 0.00017 9e-05 9e-05 9e-05 0.00017 0.00011 
0.00011 0.00013 0.00017 0.00013 0.00013 5e-05 5e-05 5e-05 0.00013 
0.00015 0.00013 5e-05 5e-05 5e-05 5e-05 5e-05 5e-05 5e-05 
5e-05 0.00013 0.00013 0.00013 0.00013 0.00013 0.00013 0.00013 0.00011 
0.00011 0.00011 0.00011 0.00011 0.00011 0.00011 0.00011 7e-05 7e-05 
7e-05 7e-05 7e-05 7e-05 7e-05 0.00015 0.00011 0.00011 0.00011 
0.00017 0.00017 0.00013 5e-05 5e-05 5e-05 9e-05 0.00013 0.00013 
0.00015 0.00017 0.00013 0.00015 0.00015 0.00017 0.00017 0.00013 9e-05 
9e-05 0.00011 0.00011 0.00011 0.00011 0.00015 0.00015 5e-05 5e-05 
5e-05 9e-05 9e-05 7e-05 0.00013 0.00013 0.00015 0.00011 0.00017 
0.00017 0.00017 0.00017 0.00011 0.00011 0.00011 0.00011 0.00011 0.00015 
9e-05 9e-05 0.00013 0.00013 7e-05 0.00015 0.00015 9e-05 9e-05 
9e-05 0.00015 0.00015 0.00015 0.00013 0.00015 0.00015 0.00015 0.00015 
0.00011 0.00011 0.00011 0.00011 0.00011 0.00015 0.00017 0.00017 0.00013 
0.00013 0.00013 0.00013 0.00013 0.00015 0.00015 0.00011 0.00011 0.00011 
5e-05 5e-05 5e-05 5e-05 5e-05 5e-05 5e-05 5e-05 5e-05 
5e-05 5e-05 5e-05 5e-05 9e-05 9e-05 0.00017 0.00013 0.00013 
0.00011 0.00011 0.00011 0.00011 0.00011 0.00011 0.00017 0.00017 0.00017 
5e-05 5e-05 5e-05 5e-05 0.00011 0.00011 0.00013 0.00013 0.00013 
0.00013 0.00013 0.00011 0.00013 0.00013 0.00013 9e-05 9e-05 9e-05 
0.00011 0.00017 0.00017 0.00015 0.00015 0.00015 0.00011 0.00011 0.00011 
5e-05 5e-05 5e-05 0.00011 0.00011 0.00017 0.00013 0.00013 0.00017 
0.00013 0.00015 9e-05 9e-05 9e-05 0.00011 0.00011 0.00011 0.00011 
0.00011 0.00015 0.00011 0.00011 0.00013 9e-05 0.00017 0.00017 9e-05 
9e-05 9e-05 9e-05 0.00017 0.00011 0.00011 9e-05 0.00013 5e-05 
5e-05 5e-05 5e-05 5e-05 5e-05 5e-05 5e-05 5e-05 5e-05 
5e-05 5e-05 5e-05 5e-05 5e-05 5e-05 5e-05 0.00015 7e-05 
7e-05 0.00017 0.00011 0.00011 0.00011 5e-05 5e-05 5e-05 5e-05 
5e-05 5e-05 5e-05 5e-05 5e-05 0.00013 0.00013 9e-05 9e-05 
9e-05 0.00013 0.00013 0.00013 7e-05 7e-05 7e-05 7e-05 0.00011 
0.00013 0.00013 0.00013 9e-05 9e-05 9e-05 0.00015 0.00015 0.00015 
0.00017 0.00015 0.00017 0.00017 9e-05 9e-05 0.00015 0.00015 0.00015 
0.00011 0.00011 0.00011 0.00011 0.00011 5e-05 5e-05 5e-05 5e-05 
5e-05 9e-05 9e-05 0.00015 0.00015 0.00013 0.00013 0.00013 0.00013 
9e-05 9e-05 9e-05 0.00011 0.00011 0.00011 9e-05 5e-05 5e-05 
5e-05 5e-05 7e-05 7e-05 7e-05 7e-05 5e-05 5e-05 5e-05 
5e-05 5e-05 0.00013 5e-05 5e-05 5e-05 5e-05 5e-05 0.00013 
0.00013 0.00013 0.00013 7e-05 7e-05 7e-05 0.00013 0.00011 0.00015 
5e-05 5e-05 5e-05 5e-05 5e-05 0.00017 0.00011 0.00011 0.00011 
0.00011 9e-05 9e-05 9e-05 9e-05 0.00013 5e-05 5e-05 5e-05 
5e-05 5e-05 5e-05 5e-05 5e-05 0.00013 5e-05 5e-05 0.00013 
7e-05 7e-05 7e-05 5e-05 5e-05 5e-05 5e-05 5e-05 5e-05 
5e-05 5e-05 0.00017 5e-05 5e-05 5e-05 5e-05 5e-05 5e-05 
5e-05 5e-05 5e-05 5e-05 5e-05 5e-05 0.00013 0.00013 0.00013 
0.00013 0.00013 0.00013 0.00013 0.00011 0.00013 9e-05 9e-05 9e-05 
9e-05 9e-05 7e-05 7e-05 7e-05 7e-05 7e-05 0.00015 0.00015 
0.00013 0.00013 0.00013 9e-05 7e-05 7e-05 7e-05 7e-05 0.00015 
7e-05 0.00013 0.00013 0.00017 0.00017 5e-05 5e-05 5e-05 5e-05 
5e-05 5e-05 5e-05 5e-05 5e-05 0.00017 0.00017 0.00011 0.00015 
5e-05 5e-05 5e-05 5e-05 5e-05 5e-05 9e-05 0.00015 0.00017 
0.00017 0.00017 0.00017 9e-05 0.00011 0.00013 0.00013 0.00015 0.00013 
0.00013 0.00013 0.00011 0.00011 0.00017 9e-05 9e-05 0.00015 0.00017 
5e-05 5e-05 5e-05 0.00013 0.00013 9e-05 9e-05 0.00015 0.00015 
0.00013 0.00013 0.00013 0.00013 0.00013 0.00017 0.00017 0.00017 0.00015 
0.00015 0.00015 0.00013 0.00013 0.00017 0.00017 0.00013 0.00013 0.00013 
0.00013 0.00017 9e-05 0.00017 0.00017 0.00017 0.00017 9e-05 9e-05 
0.00013 0.00013 0.00013 0.00011 0.00015 0.00015 0.00015 0.00015 0.00015 
0.00011 0.00011 0.00011 5e-05 5e-05 5e-05 5e-05 5e-05 5e-05 
5e-05 0.00017 0.00017 0.00011 7e-05 0.00015 0.00017 0.00017 0.00017 
0.00017 0.00013 9e-05 7e-05 7e-05 7e-05 0.00017 7e-05 7e-05 
7e-05 7e-05 5e-05 5e-05 5e-05 5e-05 5e-05 5e-05 5e-05 
9e-05 0.00013 0.00013 0.00013 0.00013 0.00013 0.00013 7e-05 7e-05 
0.00013 0.00013 0.00013 0.00015 0.00015 0.00011 0.00011 0.00011 0.00013 
0.00013 0.00013 0.00013 7e-05 7e-05 7e-05 7e-05 7e-05 7e-05 
7e-05 0.00011 0.00013 0.00011 0.00011 0.00017 0.00017 9e-05 0.00015 
0.00015 9e-05 9e-05 9e-05 9e-05 0.00013 0.00013 0.00013 0.00013 
0.00011 0.00011 0.00011 0.00011 9e-05 9e-05 9e-05 9e-05 0.00015 
0.00011 0.00017 0.00017 0.00011 0.00015 5e-05 5e-05 0.00015 0.00015 
9e-05 9e-05 9e-05 5e-05 5e-05 5e-05 5e-05 5e-05 5e-05 
5e-05 5e-05 5e-05 5e-05 7e-05 7e-05 0.00017 0.00017 7e-05 
7e-05 7e-05 7e-05 0.00015 9e-05 5e-05 9e-05 0.00011 0.00011 
0.00011 5e-05 0.00013 9e-05 9e-05 9e-05 5e-05 5e-05 5e-05 
5e-05 5e-05 5e-05 0.00015 0.00013 0.00013 0.00013 0.00013 5e-05 
5e-05 5e-05 5e-05 5e-05 5e-05 5e-05 5e-05 5e-05 5e-05 
9e-05 9e-05 9e-05 0.00015 0.00015 0.00015 0.00011 0.00011 0.00011 
0.00011 0.00013 0.00013 0.00013 7e-05 5e-05 0.00011 0.00011 0.00011 
0.00011 0.00011 0.00015 0.00015 0.00017 0.00011 9e-05 9e-05 9e-05 
5e-05 5e-05 5e-05 5e-05 5e-05 5e-05 0.00011 0.00013 9e-05 
9e-05 9e-05 0.00013 0.00013 0.00013 0.00013 0.00013 0.00013 0.00013 
0.00015 7e-05 7e-05 0.00017 0.00015 0.00017 0.00011 0.00011 0.00015 
9e-05 0.00013 0.00013 0.00013 0.00011 0.00011 0.00011 0.00011 0.00017 
0.00017 0.00013 0.00013 0.00013 9e-05 9e-05 9e-05 0.00011 5e-05 
5e-05 5e-05 5e-05 5e-05 5e-05 5e-05 0.00017 5e-05 5e-05 
5e-05 0.00011 0.00011 0.00017 0.00017 0.00013 0.00015 0.00011 0.00011 
0.00015 0.00015 0.00013 9e-05 9e-05 0.00011 0.00011 0.00011 0.00015 
0.00015 5e-05 9e-05 9e-05 9e-05 0.00011 0.00011 0.00011 0.00015 
0.00015 0.00015 0.00015 0.00015 0.00015 0.00015 5e-05 5e-05 5e-05 
5e-05 5e-05 5e-05 5e-05 5e-05 5e-05 5e-05 5e-05 0.00011 
5e-05 5e-05 0.00013 0.00013 0.00013 0.00013 0.00013 0.00011 0.00011 
5e-05 5e-05 5e-05 0.00013 7e-05 7e-05 0.00017 9e-05 0.00013 
0.00011 0.00017 7e-05 7e-05 0.00017 0.00017 0.00017 9e-05 9e-05 