# vtk DataFile Version 4.1
vtk output
ASCII
DATASET POLYDATA
FIELD FieldData 2
PORINGUMAS 1 1 double
0.55501818182 
UNIQUE_RADIUS 1 1 double
0.003 
POINTS 76318 float
0 0 0 0.006 0 0 0.003 0.00519615 0 
0.003 0.00173205 0.00489898 -0.002 0.0046188 0.00326599 0.008 0.0046188 0.00326599 
0.003 -0.00404145 0.00326599 0.00833333 -0.00096225 0.00544331 0.00266667 0.007698 0.00544331 
0.00852632 -0.00528731 0.00128921 0.0118889 0.00070565 0.000907218 -0.002 -0.0015396 0.00544331 
0.00378947 -0.0025525 0.00902444 0.0134597 -0.00390435 0.00441157 0.0128148 0.00290813 0.00641101 
-0.000137255 -0.00684141 0.00754592 -0.00233333 -0.00545275 0.000907218 0.00676917 -0.00720999 0.00669437 
-0.00581818 -0.0061584 0.00574022 0.00145455 -0.00979746 0.0025732 -0.00173664 -0.00249534 0.0113608 
0.00219984 -0.00668857 0.0130699 0.00123472 0.00265514 0.0105586 0.00944877 -0.00363413 0.0106985 
-0.00685859 -0.00164652 0.0019244 -0.00443954 -0.0108907 0.00231895 0.00721364 0.00216716 0.0104386 
0.00729726 -0.0110961 0.00215355 -0.00460563 0.00232192 0.00922476 0.00405985 -0.000636592 0.0147039 
0.00465604 0.00755404 0.0111021 0.00422859 -0.0126322 0.00707531 0.00763343 -0.00911927 0.0123164 
0.0121031 -0.00965692 0.00544481 0.0128685 0.00108446 0.0121269 0.0134691 0.00645064 0.00161283 
0.0173737 0.0005132 0.00333197 -0.0088395 -0.00716606 0.000655314 -0.00407982 -0.011302 0.00829402 
0.00672531 0.00460417 0.0158996 0.0105401 0.00714159 0.0100032 -0.00263418 0.00790374 0.00824665 
-0.000555556 0.00994325 0.000907218 0.00631579 0.0100277 0.00128921 0.00722688 0.0112228 0.00711071 
0.000765053 0.00409491 0.0163644 0.00963738 -0.000542858 0.0169135 0.00858798 0.0101974 0.0147834 
0.0118136 0.0129786 0.0105573 0.0129341 0.0061081 0.0154069 0.0163415 0.00566469 0.0104065 
0.00624628 0.0148429 0.011794 0.0142053 0.0119455 0.0159621 -0.00960517 -0.0107975 0.00536978 
-0.000823964 -0.0149657 0.0048333 -0.0113813 -0.00401005 0.00508009 0.00432848 0.00137297 0.020351 
0.00344939 0.009281 0.0177423 0.0105069 0.00415999 0.0205366 -0.00990639 -0.00704464 0.0100415 
0.00161248 0.0126336 0.00868805 0.0116784 0.0119651 0.0031569 0.00909732 0.0169213 0.00694103 
0.00415637 0.0152953 0.00395052 0.0149692 0.0158463 0.00633607 0.0108779 0.0186057 0.0124175 
-0.000652391 -0.00339287 0.0171934 0.00636582 -0.00556196 0.0172383 0.0180393 2.2297e-05 0.0092747 
0.0177414 0.00251893 0.0153202 0.00909133 0.0169044 0.000941061 0.0164717 0.00951542 0.00580705 
0.00592327 0.0210292 0.00393265 0.0125595 0.0207848 0.00392671 0.0056674 0.0206013 0.0102111 
-0.00748336 0.00588366 0.00534755 -0.00421998 0.00620859 0.0137794 0.0167639 0.0112191 6.14191e-05 
0.01781 0.0127942 0.0106505 0.0203728 0.0049616 0.0060185 -0.0143757 -0.00853524 0.00251956 
-0.00920058 -0.0129313 0.0109629 -0.00672661 -0.0159899 0.00450222 0.0192666 -0.00465447 0.00572201 
0.0191674 0.00527263 0.000149072 0.0202164 0.0139071 0.0041668 0.00816594 -0.00282376 0.0222644 
0.0121291 -0.0058388 0.0155929 0.0148027 1.75823e-05 0.0199144 0.0231615 -0.000196183 0.00474563 
0.0189549 0.00838958 0.0150696 -0.0122677 -0.0159797 0.00680361 -0.00484333 -0.0169679 0.0101144 
-0.0114937 0.00179361 0.00356188 -0.0149705 -0.0107713 0.00805548 -0.0123755 -0.0140196 0.00113382 
0.0167753 0.0186669 0.0113143 0.0159297 0.0171401 0.000556503 -0.0135476 -0.00994665 0.0138257 
-0.0154827 -0.00493731 0.00936019 -0.00553319 -0.00901374 0.0136468 -0.00131404 -0.0132608 0.0132451 
-0.00280679 0.0119364 0.012686 0.000671367 0.0184699 0.00766221 0.00940987 -0.010699 0.0178254 
0.0152528 -0.00514407 0.0105175 0.0134146 -0.00561426 0.0214492 0.017624 -0.00345056 0.015913 
0.022355 -0.000781276 0.0133648 -0.00179019 0.0153677 0.00315479 -0.0125584 -0.00407046 0.0145272 
-0.00989839 -0.00104477 0.0100809 0.0166869 0.00600646 0.0200873 0.0197465 0.0142396 0.0161423 
0.0248744 0.00304813 0.00949332 0.0248521 0.00487858 0.00202743 0.0251995 0.00842644 0.00685361 
0.0288362 0.0017003 0.00519369 0.0120369 0.000701613 0.0251948 0.0191109 -0.00374881 0.0217182 
0.0301031 0.00733645 0.00357226 0.0133145 0.0231704 0.00938004 0.0182164 0.0208749 0.00592463 
0.0220278 0.0167759 0.00911543 0.0261961 -0.0027981 0.00922015 0.0237492 0.0047824 0.0151259 
0.0302121 0.00578541 0.00936729 0.0215798 0.0190094 0.00131944 0.0260607 0.014206 0.00549165 
-0.0108915 -0.0197125 0.00231226 -0.00295699 -0.020513 0.00565636 0.0135216 0.00651491 0.025159 
0.0214089 0.00230477 0.020064 0.0173106 0.0118881 0.0210958 0.01062 0.0101579 0.0204287 
0.0152353 0.0170731 0.0189028 0.0264383 6.51928e-05 0.0176787 0.0225104 0.00820049 0.019899 
0.0249452 -0.00590259 0.00424044 0.0216234 -0.00624875 0.0110044 0.026222 -0.00515914 0.014736 
0.0313919 -1.58373e-05 0.0103438 0.0256693 0.0125025 0.0112314 0.0194541 0.0079217 0.0250547 
0.0229112 0.0140359 0.0212358 0.0279068 0.00563215 0.0193676 0.013126 0.0124987 0.0253522 
0.0184795 0.0170347 0.0239499 -0.0165539 -0.0178728 0.00305593 -0.0154063 0.000503771 0.0118878 
-0.00666364 -0.00297449 0.0147513 -0.00978328 0.00491049 0.0108031 0.0176614 0.00236925 0.0264535 
0.0160177 0.00954144 0.0296988 0.0245932 0.00488552 0.0244458 0.0217671 0.0130864 0.0270487 
0.00957979 0.0153736 0.0176511 -0.00529123 -0.0198799 0.000165413 -0.00857837 -0.0209942 0.00769806 
0.00099775 -0.0182129 0.0095383 0.0345781 0.00305259 0.00629005 0.0315149 0.0038798 0.0149055 
-0.00539592 0.013165 0.00741471 0.00169185 0.0191819 0.00010084 0.0169501 -0.00925379 0.014546 
0.00592936 0.00728859 0.0228296 0.00563805 0.0132685 0.0216551 -0.0181695 -0.00619492 0.0145755 
-0.0108722 0.00157335 0.0156691 -0.0172177 -0.00341404 0.00382219 0.0169198 0.0230575 0.000488194 
0.0208155 -0.003199 0.000111074 0.0271752 -0.001725 0.000555998 0.00145832 0.0179812 0.0135903 
-0.00625752 0.0116459 0.0016745 -0.00408261 0.0176132 0.0112211 -0.0168411 0.00205054 0.00627098 
0.00275354 -0.0197098 0.00399967 -0.0028187 -0.0224856 0.0113211 0.0045208 -0.0145672 0.0127472 
-0.00482771 0.0198667 0.00571054 -0.00117853 0.0228629 0.0113064 0.00040358 0.0233657 0.00420404 
-0.00638625 -0.0153443 0.0156807 -0.000350429 -0.018794 0.0153559 0.00260866 -0.0110249 0.0171965 
0.0259898 0.0106149 0.000685538 0.0325973 0.00273722 0.000635253 0.0309164 0.0115301 0.0077855 
-0.00754382 -0.0246377 0.00304459 -0.000699425 -0.0236373 0.00105831 -0.0204536 -0.00157754 0.00939934 
-0.0161071 -0.000476138 0.0177656 -0.0156022 0.00629409 0.0103277 0.00680765 -0.0179591 0.00806159 
0.0210829 0.0193156 0.0190489 0.0241967 0.018279 0.0252785 0.030605 -0.00402597 0.00490828 
0.0291 -0.00739524 0.000177194 0.028426 -0.00832 0.00848786 0.0358915 -0.0026931 0.00741353 
0.0245749 0.017406 0.0145113 0.0293279 0.0169975 0.00967891 -0.0130252 -0.0243484 0.0054676 
-0.00637608 -0.0264973 0.00862832 0.037072 0.00151361 0.0115257 0.0375877 -0.00018552 0.00223328 
0.0359821 0.0073762 0.002374 0.0357049 0.00819205 0.00917389 0.00615884 -0.0157084 0.0184053 
0.010501 -0.0143205 0.0131677 0.00550077 -0.00902756 0.0220592 0.0150224 -0.0111809 0.0198911 
0.0132475 0.00352057 0.0303512 0.0160761 -0.00340163 0.0268824 0.0205542 0.00570128 0.030519 
0.00408787 -0.0232763 0.00863646 0.00783919 -0.0170713 0.00221799 0.00766487 -0.0195727 0.0137766 
0.0121549 -0.0152996 0.00748388 0.0162428 0.0265115 0.00534737 0.0219999 0.0246788 0.00323842 
0.0190396 0.0242037 0.0108482 -0.0207015 0.00157621 0.0144976 0.0166023 -0.00825599 0.00173069 
0.0175813 -0.00999798 0.00786832 -0.0163272 0.00531245 0.0162023 0.0214634 -0.0121811 0.0118887 
0.0297873 0.014496 0.0151132 0.0117289 -0.017868 0.0178482 0.0132888 -0.0194242 0.0116912 
0.00926293 -0.0135883 0.0230818 0.0126044 -0.0136399 0.000985562 0.0248782 -0.00494976 0.0205798 
0.0318142 -0.00555982 0.012599 0.00206475 -0.0139333 0.0224162 0.00724047 -0.0215194 0.0194361 
0.0205961 -0.00903815 0.0193063 0.0176742 -0.00875566 0.024696 0.0218799 -0.00188992 0.0267059 
-0.0101554 -0.0296085 0.00515886 -0.0115101 -0.0248374 0.0112525 0.0252558 0.0020648 0.0296998 
0.02708 -0.000558633 0.0240251 0.0271147 0.0101844 0.0231951 0.0401117 0.00537129 0.00623742 
-0.0201803 0.0031531 0.0202632 -0.0209098 0.00735995 0.0129149 0.032662 -0.00964368 0.00445001 
0.0346523 -0.00516624 0.000628243 -0.00319593 -0.0112554 0.0186977 0.0397273 -0.00556654 0.00380385 
0.0414272 -0.000452029 0.00683621 0.00486257 0.0258273 0.00737549 0.0186996 0.0287862 0.000368416 
0.0213362 0.0287152 0.00762777 0.00349172 0.0234398 0.0150287 0.0173957 0.0323886 0.00498605 
0.0161616 0.0294611 0.0105717 0.0241008 0.030254 0.00252983 0.0245755 0.023755 0.00857818 
0.0113122 -0.0208393 0.00533887 0.0177801 -0.0161926 0.00937056 0.0150235 0.0229553 0.0151275 
0.0213103 0.0290162 0.0136202 0.00715516 -0.022999 0.00158988 0.0112767 0.0272582 0.0132708 
0.0119006 0.0304954 0.00647604 0.0200398 0.0340169 0.01012 0.0393102 0.0112712 0.00549687 
0.0408372 0.00449221 0.000346669 0.0405812 0.0063415 0.0121398 0.0180983 0.000468637 0.0321277 
0.0163076 0.00626904 0.0347195 0.0259719 0.00801317 0.029377 0.0118302 0.0261296 0.00129972 
0.0375326 -0.0104142 0.00103192 0.037095 -0.00849957 0.00832806 0.0433545 -0.00152282 0.00125599 
0.00861584 0.0212844 0.0172866 0.028721 0.0155036 0.0209311 -0.0154213 -0.0229911 0.000136919 
0.0401937 -0.00429273 0.0112778 0.0453398 -0.00488411 0.00581235 0.0453699 0.00326462 0.00425909 
0.0310006 0.0135747 0.00214525 0.0359983 0.0141715 0.0095736 -0.00851446 0.0137774 0.0125039 
-0.00314907 0.0161332 0.0169603 -0.00711692 0.0227329 0.0104586 -0.00371374 0.0217855 0.000135819 
-0.0208777 -0.00756253 0.00939906 0.0267166 0.0209988 0.00369769 0.0127819 -0.00229004 0.0317725 
0.0197837 -0.0052202 0.0312352 0.021478 0.00352279 0.0360327 -0.0239658 0.00327386 0.00975818 
-0.0247619 0.0052239 0.016989 -0.0216654 -0.002477 0.0188153 0.0161333 -0.0176791 0.00367464 
0.0263461 -0.0101762 0.0180245 0.0262074 -0.00602896 0.0263304 0.0305467 -0.00416787 0.0187751 
0.00478923 0.0263483 0.0013986 -0.0143749 0.00375006 0.0216565 -0.0162301 0.0109269 0.0140884 
[...]
POINT_DATA 76318
SCALARS RADIUS double
LOOKUP_TABLE default
0.003 0.003 0.003 0.003 0.003 0.003 0.003 0.003 0.003 
0.003 0.003 0.003 0.003 0.003 0.003 0.003 0.003 0.003 
0.003 0.003 0.003 0.003 0.003 0.003 0.003 0.003 0.003 
0.003 0.003 0.003 0.003 0.003 0.003 0.003 0.003 0.003 
0.003 0.003 0.003 0.003 0.003 0.003 0.003 0.003 0.003 
0.003 0.003 0.003 0.003 0.003 0.003 0.003 0.003 0.003 
0.003 0.003 0.003 0.003 0.003 0.003 0.003 0.003 0.003 
0.003 0.003 0.003 0.003 0.003 0.003 0.003 0.003 0.003 
0.003 0.003 0.003 0.003 0.003 0.003 0.003 0.003 0.003 
0.003 0.003 0.003 0.003 0.003 0.003 0.003 0.003 0.003 
0.003 0.003 0.003 0.003 0.003 0.003 0.003 0.003 0.003 
0.003 0.003 0.003 0.003 0.003 0.003 0.003 0.003 0.003 
0.003 0.003 0.003 0.003 0.003 0.003 0.003 0.003 0.003 
0.003 0.003 0.003 0.003 0.003 0.003 0.003 0.003 0.003 
0.003 0.003 0.003 0.003 0.003 0.003 0.003 0.003 0.003 
0.003 0.003 0.003 0.003 0.003 0.003 0.003 0.003 0.003 
0.003 0.003 0.003 0.003 0.003 0.003 0.003 0.003 0.003 
0.003 0.003 0.003 0.003 0.003 0.003 0.003 0.003 0.003 
0.003 0.003 0.003 0.003 0.003 0.003 0.003 0.003 0.003 
0.003 0.003 0.003 0.003 0.003 0.003 0.003 0.003 0.003 
0.003 0.003 0.003 0.003 0.003 0.003 0.003 0.003 0.003 
0.003 0.003 0.003 0.003 0.003 0.003 0.003 0.003 0.003 
0.003 0.003 0.003 0.003 0.003 0.003 0.003 0.003 0.003 
0.003 0.003 0.003 0.003 0.003 0.003 0.003 0.003 0.003 
0.003 0.003 0.003 0.003 0.003 0.003 0.003 0.003 0.003 
0.003 0.003 0.003 0.003 0.003 0.003 0.003 0.003 0.003 
0.003 0.003 0.003 0.003 0.003 0.003 0.003 0.003 0.003 
0.003 0.003 0.003 0.003 0.003 0.003 0.003 0.003 0.003 
0.003 0.003 0.003 0.003 0.003 0.003 0.003 0.003 0.003 
0.003 0.003 0.003 0.003 0.003 0.003 0.003 0.003 0.003 
0.003 0.003 0.003 0.003 0.003 0.003 0.003 0.003 0.003 
0.003 0.003 0.003 0.003 0.003 0.003 0.003 0.003 0.003 
0.003 0.003 0.003 0.003 0.003 0.003 0.003 0.003 0.003 
0.003 0.003 0.003 0.003 0.003 0.003 0.003 0.003 0.003 
0.003 0.003 0.003 0.003 0.003 0.003 0.003 0.003 0.003 
0.003 0.003 0.003 0.003 0.003 0.003 0.003 0.003 0.003 
0.003 0.003 0.003 0.003 0.003 0.003 0.003 0.003 0.003 
0.003 0.003 0.003 0.003 0.003 0.003 0.003 0.003 0.003 
0.003 0.003 0.003 0.003 0.003 0.003 0.003 0.003 0.003 
0.003 0.003 0.003 0.003 0.003 0.003 0.003 0.003 0.003 
0.003 0.003 0.003 0.003 0.003 0.003 0.003 0.003 0.003 
0.003 0.003 0.003 0.003 0.003 0.003 0.003 0.003 0.003 
0.003 0.003 0.003 0.003 0.003 0.003 0.003 0.003 0.003 
0.003 0.003 0.003 0.003 0.003 0.003 0.003 0.003 0.003 
0.003 0.003 0.003 0.003 0.003 0.003 0.003 0.003 0.003 
0.003 0.003 0.003 0.003 0.003 0.003 0.003 0.003 0.003 
0.003 0.003 0.003 0.003 0.003 0.003 0.003 0.003 0.003 
0.003 0.003 0.003 0.003 0.003 0.003 0.003 0.003 0.003 
0.003 0.003 0.003 0.003 0.003 0.003 0.003 0.003 0.003 
0.003 0.003 0.003 0.003 0.003 0.003 0.003 0.003 0.003 
0.003 0.003 0.003 0.003 0.003 0.003 0.003 0.003 0.003 
0.003 0.003 0.003 0.003 0.003 0.003 0.003 0.003 0.003 
0.003 0.003 0.003 0.003 0.003 0.003 0.003 0.003 0.003 
0.003 0.003 0.003 0.003 0.003 0.003 0.003 0.003 0.003 
0.003 0.003 0.003 0.003 0.003 0.003 0.003 0.003 0.003 
0.003 0.003 0.003 0.003 0.003 0.003 0.003 0.003 0.003 
0.003 0.003 0.003 0.003 0.003 0.003 0.003 0.003 0.003 
0.003 0.003 0.003 0.003 0.003 0.003 0.003 0.003 0.003 
0.003 0.003 0.003 0.003 0.003 0.003 0.003 0.003 0.003 
0.003 0.003 0.003 0.003 0.003 0.003 0.003 0.003 0.003 
0.003 0.003 0.003 0.003 0.003 0.003 0.003 0.003 0.003 
0.003 0.003 0.003 0.003 0.003 0.003 0.003 0.003 0.003 
0.003 0.003 0.003 0.003 0.003 0.003 0.003 0.003 0.003 
0.003 0.003 0.003 0.003 0.003 0.003 0.003 0.003 0.003 
0.003 0.003 0.003 0.003 0.003 0.003 0.003 0.003 0.003 
0.003 0.003 0.003 0.003 0.003 0.003 0.003 0.003 0.003 
0.003 0.003 0.003 0.003 0.003 0.003 0.003 0.003 0.003 
0.003 0.003 0.003 0.003 0.003 0.003 0.003 0.003 0.003 
0.003 0.003 0.003 0.003 0.003 0.003 0.003 0.003 0.003 
0.003 0.003 0.003 0.003 0.003 0.003 0.003 0.003 0.003 
0.003 0.003 0.003 0.003 0.003 0.003 0.003 0.003 0.003 
0.003 0.003 0.003 0.003 0.003 0.003 0.003 0.003 0.003 
0.003 0.003 0.003 0.003 0.003 0.003 0.003 0.003 0.003 
0.003 0.003 0.003 0.003 0.003 0.003 0.003 0.003 0.003 
0.003 0.003 0.003 0.003 0.003 0.003 0.003 0.003 0.003 
0.003 0.003 0.003 0.003 0.003 0.003 0.003 0.003 0.003 
0.003 0.003 0.003 0.003 0.003 0.003 0.003 0.003 0.003 
0.003 0.003 0.003 0.003 0.003 0.003 0.003 0.003 0.003 
0.003 0.003 0.003 0.003 0.003 0.003 0.003 0.003 0.003 
0.003 0.003 0.003 0.003 0.003 0.003 0.003 0.003 0.003 
0.003 0.003 0.003 0.003 0.003 0.003 0.003 0.003 0.003 
0.003 0.003 0.003 0.003 0.003 0.003 0.003 0.003 0.003 
0.003 0.003 0.003 0.003 0.003 0.003 0.003 0.003 0.003 
0.003 0.003 0.003 0.003 0.003 0.003 0.003 0.003 0.003 
0.003 0.003 0.003 0.003 0.003 0.003 0.003 0.003 0.003 
0.003 0.003 0.003 0.003 0.003 0.003 0.003 0.003 0.003 
0.003 0.003 0.003 0.003 0.003 0.003 0.003 0.003 0.003 
0.003 0.003 0.003 0.003 0.003 0.003 0.003 0.003 0.003 
0.003 0.003 0.003 0.003 0.003 0.003 0.003 0.003 0.003 
0.003 0.003 0.003 0.003 0.003 0.003 0.003 0.003 0.003 
0.003 0.003 0.003 0.003 0.003 0.003 0.003 0.003 0.003 
0.003 0.003 0.003 0.003 0.003 0.003 0.003 0.003 0.003 
0.003 0.003 0.003 0.003 0.003 0.003 0.003 0.003 0.003 
0.003 0.003 0.003 0.003 0.003 0.003 0.003 0.003 0.003 
0.003 0.003 0.003 0.003 0.003 0.003 0.003 0.003 0.003 
0.003 0.003 0.003 0.003 0.003 0.003 0.003 0.003 0.003 
0.003 0.003 0.003 0.003 0.003 0.003 0.003 0.003 0.003 
0.003 0.003 0.003 0.003 0.003 0.003 0.003 0.003 0.003 
0.003 0.003 0.003 0.003 0.003 0.003 0.003 0.003 0.003 
0.003 0.003 0.003 0.003 0.003 0.003 0.003 0.003 0.003 
0.003 0.003 0.003 0.003 0.003 0.003 0.003 0.003 0.003 
0.003 0.003 0.003 0.003 0.003 0.003 0.003 0.003 0.003 
0.003 0.003 0.003 0.003 0.003 0.003 0.003 0.003 0.003 
0.003 0.003 0.003 0.003 0.003 0.003 0.003 0.003 0.003 
0.003 0.003 0.003 0.003 0.003 0.003 0.003 0.003 0.003 
0.003 0.003 0.003 0.003 0.003 0.003 0.003 0.003 0.003 
0.003 0.003 0.003 0.003 0.003 0.003 0.003 0.003 0.003 
0.003 0.003 0.003 0.003 0.003 0.003 0.003 0.003 0.003 
0.003 0.003 0.003 0.003 0.003 0.003 0.003 0.003 0.003 
0.003 0.003 0.003 0.003 0.003 0.003 0.003 0.003 0.003 
0.003 0.003 0.003 0.003 0.003 0.003 0.003 0.003 0.003 
0.003 0.003 0.003 0.003 0.003 0.003 0.003 0.003 0.003 
0.003 0.003 0.003 0.003 0.003 0.003 0.003 0.003 0.003 
0.003 0.003 0.003 0.003 0.003 0.003 0.003 0.003 0.003 
0.003 0.003 0.003 0.003 0.003 0.003 0.003 0.003 0.003 
0.003 0.003 0.003 0.003 0.003 0.003 0.003 0.003 0.003 
0.003 0.003 0.003 0.003 0.003 0.003 0.003 0.003 0.003 
0.003 0.003 0.003 0.003 0.003 0.003 0.003 0.003 0.003 
0.003 0.003 0.003 0.003 0.003 0.003 0.003 0.003 0.003 
0.003 0.003 0.003 0.003 0.003 0.003 0.003 0.003 0.003 
0.003 0.003 0.003 0.003 0.003 0.003 0.003 0.003 0.003 
0.003 0.003 0.003 0.003 0.003 0.003 0.003 0.003 0.003 
0.003 0.003 0.003 0.003 0.003 0.003 0.003 0.003 0.003 
0.003 0.003 0.003 0.003 0.003 0.003 0.003 0.003 0.003 
0.003 0.003 0.003 0.003 0.003 0.003 0.003 0.003 0.003 
0.003 0.003 0.003 0.003 0.003 0.003 0.003 0.003 0.003 
0.003 0.003 0.003 0.003 0.003 0.003 0.003 0.003 0.003 
0.003 0.003 0.003 0.003 0.003 0.003 0.003 0.003 0.003 
0.003 0.003 0.003 0.003 0.003 0.003 0.003 0.003 0.003 
0.003 0.003 0.003 0.003 0.003 0.003 0.003 0.003 0.003 
0.003 0.003 0.003 0.003 0.003 0.003 0.003 0.003 0.003 
0.003 0.003 0.003 0.003 0.003 0.003 0.003 0.003 0.003 
0.003 0.003 0.003 0.003 0.003 0.003 0.003 0.003 0.003 
0.003 0.003 0.003 0.003 0.003 0.003 0.003 0.003 0.003 
0.003 0.003 0.003 0.003 0.003 0.003 0.003 0.003 0.003 
0.003 0.003 0.003 0.003 0.003 0.003 0.003 0.003 0.003 
0.003 0.003 0.003 0.003 0.003 0.003 0.003 0.003 0.003 
0.003 0.003 0.003 0.003 0.003 0.003 0.003 0.003 0.003 
0.003 0.003 0.003 0.003 0.003 0.003 0.003 0.003 0.003 
0.003 0.003 0.003 0.003 0.003 0.003 0.003 0.003 0.003 
0.003 0.003 0.003 0.003 0.003 0.003 0.003 0.003 0.003 
0.003 0.003 0.003 0.003 0.003 0.003 0.003 0.003 0.003 
0.003 0.003 0.003 0.003 0.003 0.003 0.003 0.003 0.003 
0.003 0.003 0.003 0.003 0.003 0.003 0.003 0.003 0.003 
0.003 0.003 0.003 0.003 0.003 0.003 0.003 0.003 0.003 
0.003 0.003 0.003 0.003 0.003 0.003 0.003 0.003 0.003 
0.003 0.003 0.003 0.003 0.003 0.003 0.003 0.003 0.003 
0.003 0.003 0.003 0.003 0.003 0.003 0.003 0.003 0.003 
0.003 0.003 0.003 0.003 0.003 0.003 0.003 0.003 0.003 
0.003 0.003 0.003 0.003 0.003 0.003 0.003 0.003 0.003 
0.003 0.003 0.003 0.003 0.003 0.003 0.003 0.003 0.003 
0.003 0.003 0.003 0.003 0.003 0.003 0.003 0.003 0.003 
0.003 0.003 0.003 0.003 0.003 0.003 0.003 0.003 0.003 
0.003 0.003 0.003 0.003 0.003 0.003 0.003 0.003 0.003 
0.003 0.003 0.003 0.003 0.003 0.003 0.003 0.003 0.003 
0.003 0.003 0.003 0.003 0.003 0.003 0.003 0.003 0.003 
0.003 0.003 0.003 0.003 0.003 0.003 0.003 0.003 0.003 
0.003 0.003 0.003 0.003 0.003 0.003 0.003 0.003 0.003 
0.003 0.003 0.003 0.003 0.003 0.003 0.003 0.003 0.003 
0.003 0.003 0.003 0.003 0.003 0.003 0.003 0.003 0.003 
0.003 0.003 0.003 0.003 0.003 0.003 0.003 0.003 0.003 
0.003 0.003 0.003 0.003 0.003 0.003 0.003 0.003 0.003 
0.003 0.003 0.003 0.003 0.003 0.003 0.003 0.003 0.003 
0.003 0.003 0.003 0.003 0.003 0.003 0.003 0.003 0.003 
0.003 0.003 0.003 0.003 0.003 0.003 0.003 0.003 0.003 
0.003 0.003 0.003 0.003 0.003 0.003 0.003 0.003 0.003 
0.003 0.003 0.003 0.003 0.003 0.003 0.003 0.003 0.003 
0.003 0.003 0.003 0.003 0.003 0.003 0.003 0.003 0.003 
0.003 0.003 0.003 0.003 0.003 0.003 0.003 0.003 0.003 
0.003 0.003 0.003 0.003 0.003 0.003 0.003 0.003 0.003 
0.003 0.003 0.003 0.003 0.003 0.003 0.003 0.003 0.003 
0.003 0.003 0.003 0.003 0.003 0.003 0.003 0.003 0.003 
0.003 0.003 0.003 0.003 0.003 0.003 0.003 0.003 0.003 
0.003 0.003 0.003 0.003 0.003 0.003 0.003 0.003 0.003 
0.003 0.003 0.003 0.003 0.003 0.003 0.003 0.003 0.003 
0.003 0.003 0.003 0.003 0.003 0.003 0.003 0.003 0.003 
0.003 0.003 0.003 0.003 0.003 0.003 0.003 0.003 0.003 
0.003 0.003 0.003 0.003 0.003 0.003 0.003 0.003 0.003 
0.003 0.003 0.003 0.003 0.003 0.003 0.003 0.003 0.003 
0.003 0.003 0.003 0.003 0.003 0.003 0.003 0.003 0.003 
0.003 0.003 0.003 0.003 0.003 0.003 0.003 0.003 0.003 
0.003 0.003 0.003 0.003 0.003 0.003 0.003 0.003 0.003 
0.003 0.003 0.003 0.003 0.003 0.003 0.003 0.003 0.003 
0.003 0.003 0.003 0.003 0.003 0.003 0.003 0.003 0.003 
0.003 0.003 0.003 0.003 0.003 0.003 0.003 0.003 0.003 
0.003 0.003 0.003 0.003 0.003 0.003 0.003 0.003 0.003 
0.003 0.003 0.003 0.003 0.003 0.003 0.003 0.003 0.003 
0.003 0.003 0.003 0.003 0.003 0.003 0.003 0.003 0.003 
0.003 0.003 0.003 0.003 0.003 0.003 0.003 0.003 0.003 
0.003 0.003 0.003 0.003 0.003 0.003 0.003 0.003 0.003 
0.003 0.003 0.003 0.003 0.003 0.003 0.003 0.003 0.003 
0.003 0.003 0.003 0.003 0.003 0.003 0.003 0.003 0.003 
0.003 0.003 0.003 0.003 0.003 0.003 0.003 0.003 0.003 
0.003 0.003 0.003 0.003 0.003 0.003 0.003 0.003 0.003 
0.003 0.003 0.003 0.003 0.003 0.003 0.003 0.003 0.003 
0.003 0.003 0.003 0.003 0.003 0.003 0.003 0.003 0.003 
0.003 0.003 0.003 0.003 0.003 0.003 0.003 0.003 0.003 
0.003 0.003 0.003 0.003 0.003 0.003 0.003 0.003 0.003 
0.003 0.003 0.003 0.003 0.003 0.003 0.003 0.003 0.003 
0.003 0.003 0.003 0.003 0.003 0.003 0.003 0.003 0.003 
0.003 0.003 0.003 0.003 0.003 0.003 0.003 0.003 0.003 
0.003 0.003 0.003 0.003 0.003 0.003 0.003 0.003 0.003 
0.003 0.003 0.003 0.003 0.003 0.003 0.003 0.003 0.003 
0.003 0.003 0.003 0.003 0.003 0.003 0.003 0.003 0.003 
0.003 0.003 0.003 0.003 0.003 0.003 0.003 0.003 0.003 
0.003 0.003 0.003 0.003 0.003 0.003 0.003 0.003 0.003 
0.003 0.003 0.003 0.003 0.003 0.003 0.003 0.003 0.003 
0.003 0.003 0.003 0.003 0.003 0.003 0.003 0.003 0.003 
0.003 0.003 0.003 0.003 0.003 0.003 0.003 0.003 0.003 
0.003 0.003 0.003 0.003 0.003 0.003 0.003 0.003 0.003 
0.003 0.003 0.003 0.003 0.003 0.003 0.003 0.003 0.003 
0.003 0.003 0.003 0.003 0.003 0.003 0.003 0.003 0.003 
0.003 0.003 0.003 0.003 0.003 0.003 0.003 0.003 0.003 
0.003 0.003 0.003 0.003 0.003 0.003 0.003 0.003 0.003 
0.003 0.003 0.003 0.003 0.003 0.003 0.003 0.003 0.003 
0.003 0.003 0.003 0.003 0.003 0.003 0.003 0.003 0.003 
0.003 0.003 0.003 0.003 0.003 0.003 0.003 0.003 0.003 
0.003 0.003 0.003 0.003 0.003 0.003 0.003 0.003 0.003 
0.003 0.003 0.003 0.003 0.003 0.003 0.003 0.003 0.003 
0.003 0.003 0.003 0.003 0.003 0.003 0.003 0.003 0.003 
0.003 0.003 0.003 0.003 0.003 0.003 0.003 0.003 0.003 
0.003 0.003 0.003 0.003 0.003 0.003 0.003 0.003 0.003 
0.003 0.003 0.003 0.003 0.003 0.003 0.003 0.003 0.003 
0.003 0.003 0.003 0.003 0.003 0.003 0.003 0.003 0.003 
0.003 0.003 0.003 0.003 0.003 0.003 0.003 0.003 0.003 
0.003 0.003 0.003 0.003 0.003 0.003 0.003 0.003 0.003 
0.003 0.003 0.003 0.003 0.003 0.003 0.003 0.003 0.003 
0.003 0.003 0.003 0.003 0.003 0.003 0.003 0.003 0.003 
0.003 0.003 0.003 0.003 0.003 0.003 0.003 0.003 0.003 
0.003 0.003 0.003 0.003 0.003 0.003 0.003 0.003 0.003 
0.003 0.003 0.003 0.003 0.003 0.003 0.003 0.003 0.003 
0.003 0.003 0.003 0.003 0.003 0.003 0.003 0.003 0.003 
0.003 0.003 0.003 0.003 0.003 0.003 0.003 0.003 0.003 
0.003 0.003 0.003 0.003 0.003 0.003 0.003 0.003 0.003 
0.003 0.003 0.003 0.003 0.003 0.003 0.003 0.003 0.003 
0.003 0.003 0.003 0.003 0.003 0.003 0.003 0.003 0.003 
0.003 0.003 0.003 0.003 0.003 0.003 0.003 0.003 0.003 
0.003 0.003 0.003 0.003 0.003 0.003 0.003 0.003 0.003 
0.003 0.003 0.003 0.003 0.003 0.003 0.003 0.003 0.003 
0.003 0.003 0.003 0.003 0.003 0.003 0.003 0.003 0.003 
0.003 0.003 0.003 0.003 0.003 0.003 0.003 0.003 0.003 
0.003 0.003 0.003 0.003 0.003 0.003 0.003 0.003 0.003 
0.003 0.003 0.003 0.003 0.003 0.003 0.003 0.003 0.003 
0.003 0.003 0.003 0.003 0.003 0.003 0.003 0.003 0.003 
0.003 0.003 0.003 0.003 0.003 0.003 0.003 0.003 0.003 
0.003 0.003 0.003 0.003 0.003 0.003 0.003 0.003 0.003 
0.003 0.003 0.003 0.003 0.003 0.003 0.003 0.003 0.003 
0.003 0.003 0.003 0.003 0.003 0.003 0.003 0.003 0.003 
0.003 0.003 0.003 0.003 0.003 0.003 0.003 0.003 0.003 
0.003 0.003 0.003 0.003 0.003 0.003 0.003 0.003 0.003 
0.003 0.003 0.003 0.003 0.003 0.003 0.003 0.003 0.003 
0.003 0.003 0.003 0.003 0.003 0.003 0.003 0.003 0.003 
0.003 0.003 0.003 0.003 0.003 0.003 0.003 0.003 0.003 
0.003 0.003 0.003 0.003 0.003 0.003 0.003 0.003 0.003 
0.003 0.003 0.003 0.003 0.003 0.003 0.003 0.003 0.003 
0.003 0.003 0.003 0.003 0.003 0.003 0.003 0.003 0.003 
0.003 0.003 0.003 0.003 0.003 0.003 0.003 0.003 0.003 
0.003 0.003 0.003 0.003 0.003 0.003 0.003 0.003 0.003 
0.003 0.003 0.003 0.003 0.003 0.003 0.003 0.003 0.003 
0.003 0.003 0.003 0.003 0.003 0.003 0.003 0.003 0.003 
0.003 0.003 0.003 0.003 0.003 0.003 0.003 0.003 0.003 
0.003 0.003 0.003 0.003 0.003 0.003 0.003 0.003 0.003 
0.003 0.003 0.003 0.003 0.003 0.003 0.003 0.003 0.003 
0.003 0.003 0.003 0.003 0.003 0.003 0.003 0.003 0.003 
0.003 0.003 0.003 0.003 0.003 0.003 0.003 0.003 0.003 
0.003 0.003 0.003 0.003 0.003 0.003 0.003 0.003 0.003 
0.003 0.003 0.003 0.003 0.003 0.003 0.003 0.003 0.003 
0.003 0.003 0.003 0.003 0.003 0.003 0.003 0.003 0.003 
0.003 0.003 0.003 0.003 0.003 0.003 0.003 0.003 0.003 
0.003 0.003 0.003 0.003 0.003 0.003 0.003 0.003 0.003 
0.003 0.003 0.003 0.003 0.003 0.003 0.003 0.003 0.003 
0.003 0.003 0.003 0.003 0.003 0.003 0.003 0.003 0.003 
0.003 0.003 0.003 0.003 0.003 0.003 0.003 0.003 0.003 
0.003 0.003 0.003 0.003 0.003 0.003 0.003 0.003 0.003 
0.003 0.003 0.003 0.003 0.003 0.003 0.003 0.003 0.003 
0.003 0.003 0.003 0.003 0.003 0.003 0.003 0.003 0.003 
0.003 0.003 0.003 0.003 0.003 0.003 0.003 0.003 0.003 
0.003 0.003 0.003 0.003 0.003 0.003 0.003 0.003 0.003 
0.003 0.003 0.003 0.003 0.003 0.003 0.003 0.003 0.003 
0.003 0.003 0.003 0.003 0.003 0.003 0.003 0.003 0.003 
0.003 0.003 0.003 0.003 0.003 0.003 0.003 0.003 0.003 
0.003 0.003 0.003 0.003 0.003 0.003 0.003 0.003 0.003 
0.003 0.003 0.003 0.003 0.003 0.003 0.003 0.003 0.003 
0.003 0.003 0.003 0.003 0.003 0.003 0.003 0.003 0.003 
0.003 0.003 0.003 0.003 0.003 0.003 0.003 0.003 0.003 
0.003 0.003 0.003 0.003 0.003 0.003 0.003 0.003 0.003 
0.003 0.003 0.003 0.003 0.003 0.003 0.003 0.003 0.003 
0.003 0.003 0.003 0.003 0.003 0.003 0.003 0.003 0.003 
0.003 0.003 0.003 0.003 0.003 0.003 0.003 0.003 0.003 
0.003 0.003 0.003 0.003 0.003 0.003 0.003 0.003 0.003 
0.003 0.003 0.003 0.003 0.003 0.003 0.003 0.003 0.003 
0.003 0.003 0.003 0.003 0.003 0.003 0.003 0.003 0.003 
0.003 0.003 0.003 0.003 0.003 0.003 0.003 0.003 0.003 
0.003 0.003 0.003 0.003 0.003 0.003 0.003 0.003 0.003 
0.003 0.003 0.003 0.003 0.003 0.003 0.003 0.003 0.003 
0.003 0.003 0.003 0.003 0.003 0.003 0.003 0.003 0.003 
0.003 0.003 0.003 0.003 0.003 0.003 0.003 0.003 0.003 
0.003 0.003 0.003 0.003 0.003 0.003 0.003 0.003 0.003 
0.003 0.003 0.003 0.003 0.003 0.003 0.003 0.003 0.003 
0.003 0.003 0.003 0.003 0.003 0.003 0.003 0.003 0.003 
0.003 0.003 0.003 0.003 0.003 0.003 0.003 0.003 0.003 
0.003 0.003 0.003 0.003 0.003 0.003 0.003 0.003 0.003 
0.003 0.003 0.003 0.003 0.003 0.003 0.003 0.003 0.003 
0.003 0.003 0.003 0.003 0.003 0.003 0.003 0.003 0.003 
0.003 0.003 0.003 0.003 0.003 0.003 0.003 0.003 0.003 
0.003 0.003 0.003 0.003 0.003 0.003 0.003 0.003 0.003 
0.003 0.003 0.003 0.003 0.003 0.003 0.003 0.003 0.003 
0.003 0.003 0.003 0.003 0.003 0.003 0.003 0.003 0.003 
0.003 0.003 0.003 0.003 0.003 0.003 0.003 0.003 0.003 
0.003 0.003 0.003 0.003 0.003 0.003 0.003 0.003 0.003 
0.003 0.003 0.003 0.003 0.003 0.003 0.003 0.003 0.003 
0.003 0.003 0.003 0.003 0.003 0.003 0.003 0.003 0.003 
0.003 0.003 0.003 0.003 0.003 0.003 0.003 0.003 0.003 
0.003 0.003 0.003 0.003 0.003 0.003 0.003 0.003 0.003 
0.003 0.003 0.003 0.003 0.003 0.003 0.003 0.003 0.003 
0.003 0.003 0.003 0.003 0.003 0.003 0.003 0.003 0.003 
0.003 0.003 0.003 0.003 0.003 0.003 0.003 0.003 0.003 
0.003 0.003 0.003 0.003 0.003 0.003 0.003 0.003 0.003 
0.003 0.003 0.003 0.003 0.003 0.003 0.003 0.003 0.003 
0.003 0.003 0.003 0.003 0.003 0.003 0.003 0.003 0.003 
0.003 0.003 0.003 0.003 0.003 0.003 0.003 0.003 0.003 
0.003 0.003 0.003 0.003 0.003 0.003 0.003 0.003 0.003 
0.003 0.003 0.003 0.003 0.003 0.003 0.003 0.003 0.003 
0.003 0.003 0.003 0.003 0.003 0.003 0.003 0.003 0.003 
0.003 0.003 0.003 0.003 0.003 0.003 0.003 0.003 0.003 
0.003 0.003 0.003 0.003 0.003 0.003 0.003 0.003 0.003 
0.003 0.003 0.003 0.003 0.003 0.003 0.003 0.003 0.003 
0.003 0.003 0.003 0.003 0.003 0.003 0.003 0.003 0.003 
0.003 0.003 0.003 0.003 0.003 0.003 0.003 0.003 0.003 
0.003 0.003 0.003 0.003 0.003 0.003 0.003 0.003 0.003 
0.003 0.003 0.003 0.003 0.003 0.003 0.003 0.003 0.003 
0.003 0.003 0.003 0.003 0.003 0.003 0.003 0.003 0.003 
0.003 0.003 0.003 0.003 0.003 0.003 0.003 0.003 0.003 
0.003 0.003 0.003 0.003 0.003 0.003 0.003 0.003 0.003 
0.003 0.003 0.003 0.003 0.003 0.003 0.003 0.003 0.003 
0.003 0.003 0.003 0.003 0.003 0.003 0.003 0.003 0.003 
0.003 0.003 0.003 0.003 0.003 0.003 0.003 0.003 0.003 
0.003 0.003 0.003 0.003 0.003 0.003 0.003 0.003 0.003 
0.003 0.003 0.003 0.003 0.003 0.003 0.003 0.003 0.003 
0.003 0.003 0.003 0.003 0.003 0.003 0.003 0.003 0.003 
0.003 0.003 0.003 0.003 0.003 0.003 0.003 0.003 0.003 
0.003 0.003 0.003 0.003 0.003 0.003 0.003 0.003 0.003 
0.003 0.003 0.003 0.003 0.003 0.003 0.003 0.003 0.003 
0.003 0.003 0.003 0.003 0.003 0.003 0.003 0.003 0.003 
0.003 0.003 0.003 0.003 0.003 0.003 0.003 0.003 0.003 
0.003 0.003 0.003 0.003 0.003 0.003 0.003 0.003 0.003 
0.003 0.003 0.003 0.003 0.003 0.003 0.003 0.003 0.003 
0.003 0.003 0.003 0.003 0.003 0.003 0.003 0.003 0.003 
0.003 0.003 0.003 0.003 0.003 0.003 0.003 0.003 0.003 
0.003 0.003 0.003 0.003 0.003 0.003 0.003 0.003 0.003 
0.003 0.003 0.003 0.003 0.003 0.003 0.003 0.003 0.003 
0.003 0.003 0.003 0.003 0.003 0.003 0.003 0.003 0.003 
0.003 0.003 0.003 0.003 0.003 0.003 0.003 0.003 0.003 
0.003 0.003 0.003 0.003 0.003 0.003 0.003 0.003 0.003 
0.003 0.003 0.003 0.003 0.003 0.003 0.003 0.003 0.003 
0.003 0.003 0.003 0.003 0.003 0.003 0.003 0.003 0.003 
0.003 0.003 0.003 0.003 0.003 0.003 0.003 0.003 0.003 
0.003 0.003 0.003 0.003 0.003 0.003 0.003 0.003 0.003 
0.003 0.003 0.003 0.003 0.003 0.003 0.003 0.003 0.003 
0.003 0.003 0.003 0.003 0.003 0.003 0.003 0.003 0.003 
0.003 0.003 0.003 0.003 0.003 0.003 0.003 0.003 0.003 
0.003 0.003 0.003 0.003 0.003 0.003 0.003 0.003 0.003 